 vasp.6.4.1 05Apr23 (build Jun 06 2023 10:26:43) complex                        
  
 executed on             LinuxIFC date 2023.06.30  11:15:25
 running    1 mpi-ranks, on    1 nodes
 distrk:  each k-point on    1 cores,    1 groups
 distr:  one band on NCORE=   1 cores,    1 groups


--------------------------------------------------------------------------------------------------------


 INCAR:
   SYSTEM = BN
   GGA = PE
   ISMEAR = 0
   EDIFF = 1.0E-6
   EDIFFG = -1.0E-3
   KPAR = 1
   NCSHMEM = -1
   PREC = Normal
   NCORE = 4
   IBRION = 2
   POTIM = 0.5
   NSW = 101
   ENCUT = 1000

 POTCAR:    PAW_PBE H 15Jun2001                   
 POTCAR:    PAW_PBE O 08Apr2002                   
 -----------------------------------------------------------------------------
|                                                                             |
|           W    W    AA    RRRRR   N    N  II  N    N   GGGG   !!!           |
|           W    W   A  A   R    R  NN   N  II  NN   N  G    G  !!!           |
|           W    W  A    A  R    R  N N  N  II  N N  N  G       !!!           |
|           W WW W  AAAAAA  RRRRR   N  N N  II  N  N N  G  GGG   !            |
|           WW  WW  A    A  R   R   N   NN  II  N   NN  G    G                |
|           W    W  A    A  R    R  N    N  II  N    N   GGGG   !!!           |
|                                                                             |
|     The value NCORE = 4 specified in the INCAR file was overwritten,        |
|     because it was not compatible with the 1 processes available:           |
|     NCORE = 1                                                               |
|     was used instead, please check that this makes sense for your           |
|     machine.                                                                |
|                                                                             |
 -----------------------------------------------------------------------------

 POTCAR:    PAW_PBE H 15Jun2001                   
   VRHFIN =H: ultrasoft test                                                                        
   LEXCH  = PE                                                                                      
   EATOM  =    12.4884 eV,    0.9179 Ry                                                             
                                                                                                    
   TITEL  = PAW_PBE H 15Jun2001                                                                     
   LULTRA =        F    use ultrasoft PP ?                                                          
   IUNSCR =        0    unscreen: 0-lin 1-nonlin 2-no                                               
   RPACOR =    0.000    partial core radius                                                         
   POMASS =    1.000; ZVAL   =    1.000    mass and valenz                                          
   RCORE  =    1.100    outmost cutoff radius                                                       
   RWIGS  =    0.700; RWIGS  =    0.370    wigner-seitz radius (au A)                               
   ENMAX  =  250.000; ENMIN  =  200.000 eV                                                          
   RCLOC  =    0.701    cutoff for local pot                                                        
   LCOR   =        T    correct aug charges                                                         
   LPAW   =        T    paw PP                                                                      
   EAUG   =  400.000                                                                                
   RMAX   =    1.123    core radius for proj-oper                                                   
   RAUG   =    1.200    factor for augmentation sphere                                              
   RDEP   =    1.112    radius for radial grids                                                     
   RDEPT  =    0.926    core radius for aug-charge                                                  
                                                                                                    
   Atomic configuration                                                                             
    2 entries                                                                                       
     n  l   j            E        occ.                                                              
     1  0  0.50        -6.4927   1.0000                                                             
     2  1  0.50        -3.4015   0.0000                                                             
   Description                                                                                      
     l       E           TYP  RCUT    TYP  RCUT                                                     
     0     -6.4927494     23  1.100                                                                 
     0      6.8029130     23  1.100                                                                 
     1     -4.0817478     23  1.100                                                                 
  local pseudopotential read in
  atomic valenz-charges read in
  non local Contribution for L=           0  read in
    real space projection operators read in
  non local Contribution for L=           0  read in
    real space projection operators read in
  non local Contribution for L=           1  read in
    real space projection operators read in
    PAW grid and wavefunctions read in
 
   number of l-projection  operators is LMAX  =           3
   number of lm-projection operators is LMMAX =           5
 
 POTCAR:    PAW_PBE O 08Apr2002                   
   VRHFIN =O: s2p4                                                                                  
   LEXCH  = PE                                                                                      
   EATOM  =   432.3788 eV,   31.7789 Ry                                                             
                                                                                                    
   TITEL  = PAW_PBE O 08Apr2002                                                                     
   LULTRA =        F    use ultrasoft PP ?                                                          
   IUNSCR =        1    unscreen: 0-lin 1-nonlin 2-no                                               
   RPACOR =    1.200    partial core radius                                                         
   POMASS =   16.000; ZVAL   =    6.000    mass and valenz                                          
   RCORE  =    1.520    outmost cutoff radius                                                       
   RWIGS  =    1.550; RWIGS  =    0.820    wigner-seitz radius (au A)                               
   ENMAX  =  400.000; ENMIN  =  300.000 eV                                                          
   ICORE  =        2    local potential                                                             
   LCOR   =        T    correct aug charges                                                         
   LPAW   =        T    paw PP                                                                      
   EAUG   =  605.392                                                                                
   DEXC   =    0.000                                                                                
   RMAX   =    1.553    core radius for proj-oper                                                   
   RAUG   =    1.300    factor for augmentation sphere                                              
   RDEP   =    1.550    radius for radial grids                                                     
   RDEPT  =    1.329    core radius for aug-charge                                                  
                                                                                                    
   Atomic configuration                                                                             
    4 entries                                                                                       
     n  l   j            E        occ.                                                              
     1  0  0.50      -514.6923   2.0000                                                             
     2  0  0.50       -23.9615   2.0000                                                             
     2  1  0.50        -9.0305   4.0000                                                             
     3  2  1.50        -9.5241   0.0000                                                             
   Description                                                                                      
     l       E           TYP  RCUT    TYP  RCUT                                                     
     0    -23.9615318     23  1.200                                                                 
     0     -9.5240782     23  1.200                                                                 
     1     -9.0304911     23  1.520                                                                 
     1      8.1634956     23  1.520                                                                 
     2     -9.5240782      7  1.500                                                                 
  local pseudopotential read in
  partial core-charges read in
  partial kinetic energy density read in
  kinetic energy density of atom read in
  atomic valenz-charges read in
  non local Contribution for L=           0  read in
    real space projection operators read in
  non local Contribution for L=           0  read in
    real space projection operators read in
  non local Contribution for L=           1  read in
    real space projection operators read in
  non local Contribution for L=           1  read in
    real space projection operators read in
    PAW grid and wavefunctions read in
 
   number of l-projection  operators is LMAX  =           4
   number of lm-projection operators is LMMAX =           8
 
  PAW_PBE H 15Jun2001                   :
 energy of atom  1       EATOM=  -12.4884
 kinetic energy error for atom=    0.0001 (will be added to EATOM!!)
  PAW_PBE O 08Apr2002                   :
 energy of atom  2       EATOM= -432.3788
 kinetic energy error for atom=    0.0022 (will be added to EATOM!!)
 
 
 POSCAR: Water molecule
  positions in cartesian coordinates
  No initial velocities read in
 exchange correlation table for  LEXCH =        8
   RHO(1)=    0.500       N(1)  =     2000
   RHO(2)=  100.500       N(2)  =     4000
 


--------------------------------------------------------------------------------------------------------


 ion  position               nearest neighbor table
   1  0.255  0.000  0.072-   3 1.00
   2  0.209  0.000  0.007-   3 1.00
   3  0.257  0.000  0.022-   1 1.00   2 1.00
 
  LATTYP: Found a simple cubic cell.
 ALAT       =    20.0000000000
  
  Lattice vectors:
  
 A1 = (  20.0000000000,   0.0000000000,   0.0000000000)
 A2 = (   0.0000000000,  20.0000000000,   0.0000000000)
 A3 = (   0.0000000000,   0.0000000000,  20.0000000000)


Analysis of symmetry for initial positions (statically):
=====================================================================
 Subroutine PRICEL returns:
 Original cell was already a primitive cell.
 

 Routine SETGRP: Setting up the symmetry group for a 
 simple cubic supercell.


 Subroutine GETGRP returns: Found  2 space group operations
 (whereof  2 operations were pure point group operations)
 out of a pool of 48 trial point group operations.


The static configuration has the point symmetry C_1h.


Analysis of symmetry for dynamics (positions and initial velocities):
=====================================================================
 Subroutine PRICEL returns:
 Original cell was already a primitive cell.
 

 Routine SETGRP: Setting up the symmetry group for a 
 simple cubic supercell.


 Subroutine GETGRP returns: Found  2 space group operations
 (whereof  2 operations were pure point group operations)
 out of a pool of 48 trial point group operations.


The dynamic configuration has the point symmetry C_1h.


 Subroutine INISYM returns: Found  2 space group operations
 (whereof  2 operations are pure point group operations),
 and found     1 'primitive' translations


----------------------------------------------------------------------------------------

                                     Primitive cell                                     

  volume of cell :    8000.0000

  direct lattice vectors                    reciprocal lattice vectors
    20.000000000  0.000000000  0.000000000     0.050000000  0.000000000  0.000000000
     0.000000000 20.000000000  0.000000000     0.000000000  0.050000000  0.000000000
     0.000000000  0.000000000 20.000000000     0.000000000  0.000000000  0.050000000

  length of vectors
    20.000000000 20.000000000 20.000000000     0.050000000  0.050000000  0.050000000

  position of ions in fractional coordinates (direct lattice)
     0.255395500  0.000003500  0.072266000
     0.209022500  0.000002000  0.007084000
     0.256695000  0.000004000  0.022280500

  ion indices of the primitive-cell ions
   primitive index   ion index
                 1           1
                 2           2
                 3           3

----------------------------------------------------------------------------------------

 
 
 KPOINTS: Automatically generated mesh            

Automatic generation of k-mesh.
 Grid dimensions read from file:
 generate k-points for:    1    1    1

 Generating k-lattice:

  Cartesian coordinates                     Fractional coordinates (reciprocal lattice)
     0.050000000  0.000000000  0.000000000     1.000000000  0.000000000  0.000000000
     0.000000000  0.050000000  0.000000000     0.000000000  1.000000000  0.000000000
     0.000000000  0.000000000  0.050000000     0.000000000  0.000000000  1.000000000

  Length of vectors
     0.050000000  0.050000000  0.050000000

  Shift w.r.t. Gamma in fractional coordinates (k-lattice)
     0.000000000  0.000000000  0.000000000

 
 Subroutine IBZKPT returns following result:
 ===========================================
 
 Found      1 irreducible k-points:
 
 Following reciprocal coordinates:
            Coordinates               Weight
  0.000000  0.000000  0.000000      1.000000
 
 Following cartesian coordinates:
            Coordinates               Weight
  0.000000  0.000000  0.000000      1.000000
 


--------------------------------------------------------------------------------------------------------




 Dimension of arrays:
   k-points           NKPTS =      1   k-points in BZ     NKDIM =      1   number of bands    NBANDS=      8
   number of dos      NEDOS =    301   number of ions     NIONS =      3
   non local maximal  LDIM  =      4   non local SUM 2l+1 LMDIM =      8
   total plane-waves  NPLWV = ******
   max r-space proj   IRMAX =      1   max aug-charges    IRDMAX=   6841
   dimension x,y,z NGX =   160 NGY =  160 NGZ =  160
   dimension x,y,z NGXF=   320 NGYF=  320 NGZF=  320
   support grid    NGXF=   320 NGYF=  320 NGZF=  320
   ions per type =               2   1
   NGX,Y,Z   is equivalent  to a cutoff of  13.30, 13.30, 13.30 a.u.
   NGXF,Y,Z  is equivalent  to a cutoff of  26.60, 26.60, 26.60 a.u.

 SYSTEM =  BN                                      
 POSCAR =  Water molecule                          

 Startparameter for this run:
   NWRITE =      2    write-flag & timer
   PREC   = normal    normal or accurate (medium, high low for compatibility)
   ISTART =      1    job   : 0-new  1-cont  2-samecut
   ICHARG =      0    charge: 1-file 2-atom 10-const
   ISPIN  =      1    spin polarized calculation?
   LNONCOLLINEAR =      F non collinear calculations
   LSORBIT =      F    spin-orbit coupling
   INIWAV =      1    electr: 0-lowe 1-rand  2-diag
   LASPH  =      F    aspherical Exc in radial PAW
 Electronic Relaxation 1
   ENCUT  = 1000.0 eV  73.50 Ry    8.57 a.u.  51.57 51.57 51.57*2*pi/ulx,y,z
   ENINI  = 1000.0     initial cutoff
   ENAUG  =  605.4 eV  augmentation charge cutoff
   NELM   =     60;   NELMIN=  2; NELMDL=  0     # of ELM steps 
   EDIFF  = 0.1E-05   stopping-criterion for ELM
   LREAL  =      F    real-space projection
   NLSPLINE    = F    spline interpolate recip. space projectors
   LCOMPAT=      F    compatible to vasp.4.4
   GGA_COMPAT  = T    GGA compatible to vasp.4.4-vasp.4.6
   LMAXPAW     = -100 max onsite density
   LMAXMIX     =    2 max onsite mixed and CHGCAR
   VOSKOWN=      0    Vosko Wilk Nusair interpolation
   ROPT   =    0.00000   0.00000
 Ionic relaxation
   EDIFFG = -.1E-02   stopping-criterion for IOM
   NSW    =    101    number of steps for IOM
   NBLOCK =      1;   KBLOCK =    101    inner block; outer block 
   IBRION =      2    ionic relax: 0-MD 1-quasi-New 2-CG
   NFREE  =      1    steps in history (QN), initial steepest desc. (CG)
   ISIF   =      2    stress and relaxation
   IWAVPR =     11    prediction:  0-non 1-charg 2-wave 3-comb
   ISYM   =      2    0-nonsym 1-usesym 2-fastsym
   LCORR  =      T    Harris-Foulkes like correction to forces

   POTIM  = 0.5000    time-step for ionic-motion
   TEIN   =    0.0    initial temperature
   TEBEG  =    0.0;   TEEND  =   0.0 temperature during run
   SMASS  =  -3.00    Nose mass-parameter (am)
   estimated Nose-frequenzy (Omega)   =  0.10E-29 period in steps = 0.13E+47 mass=  -0.914E-26a.u.
   SCALEE = 1.0000    scale energy and forces
   NPACO  =    256;   APACO  = 10.0  distance and # of slots for P.C.
   PSTRESS=    0.0 pullay stress

  Mass of Ions in am
   POMASS =   1.00 16.00
  Ionic Valenz
   ZVAL   =   1.00  6.00
  Atomic Wigner-Seitz radii
   RWIGS  =  -1.00 -1.00
  virtual crystal weights 
   VCA    =   1.00  1.00
   NELECT =       8.0000    total number of electrons
   NUPDOWN=      -1.0000    fix difference up-down

 DOS related values:
   EMIN   =  10.00;   EMAX   =-10.00  energy-range for DOS
   EFERMI =   0.00;   METHOD = LEGACY      
   ISMEAR =     0;   SIGMA  =   0.20  broadening in eV -4-tet -1-fermi 0-gaus

 Electronic relaxation 2 (details)
   IALGO  =     38    algorithm
   LDIAG  =      T    sub-space diagonalisation (order eigenvalues)
   LSUBROT=      F    optimize rotation matrix (better conditioning)
   TURBO    =      0    0=normal 1=particle mesh
   IRESTART =      0    0=no restart 2=restart with 2 vectors
   NREBOOT  =      0    no. of reboots
   NMIN     =      0    reboot dimension
   EREF     =   0.00    reference energy to select bands
   IMIX   =      4    mixing-type and parameters
     AMIX     =   0.40;   BMIX     =  1.00
     AMIX_MAG =   1.60;   BMIX_MAG =  1.00
     AMIN     =   0.10
     WC   =   100.;   INIMIX=   1;  MIXPRE=   1;  MAXMIX= -45

 Intra band minimization:
   WEIMIN = 0.0010     energy-eigenvalue tresh-hold
   EBREAK =  0.31E-07  absolut break condition
   DEPER  =   0.30     relativ break condition  

   TIME   =   0.40     timestep for ELM

  volume/ion in A,a.u.               =    2666.67     17995.55
  Fermi-wavevector in a.u.,A,eV,Ry     =   0.163710  0.309367  0.364649  0.026801
  Thomas-Fermi vector in A             =   0.862763
 
 Write flags
   LWAVE        =      T    write WAVECAR
   LDOWNSAMPLE  =      F    k-point downsampling of WAVECAR
   LCHARG       =      T    write CHGCAR
   LVTOT        =      F    write LOCPOT, total local potential
   LVHAR        =      F    write LOCPOT, Hartree potential only
   LELF         =      F    write electronic localiz. function (ELF)
   LORBIT       =      0    0 simple, 1 ext, 2 COOP (PROOUT), +10 PAW based schemes


 Dipole corrections
   LMONO  =      F    monopole corrections only (constant potential shift)
   LDIPOL =      F    correct potential (dipole corrections)
   IDIPOL =      0    1-x, 2-y, 3-z, 4-all directions 
   EPSILON=  1.0000000 bulk dielectric constant

 Exchange correlation treatment:
   GGA     =    PE    GGA type
   LEXCH   =     8    internal setting for exchange type
   LIBXC   =     F    Libxc                    
   VOSKOWN =     0    Vosko Wilk Nusair interpolation
   LHFCALC =     F    Hartree Fock is set to
   LHFONE  =     F    Hartree Fock one center treatment
   AEXX    =    0.0000 exact exchange contribution

 Linear response parameters
   LEPSILON=     F    determine dielectric tensor
   LRPA    =     F    only Hartree local field effects (RPA)
   LNABLA  =     F    use nabla operator in PAW spheres
   LVEL    =     F    velocity operator in full k-point grid
   CSHIFT  =0.1000    complex shift for real part using Kramers Kronig
   OMEGAMAX=  -1.0    maximum frequency
   DEG_THRESHOLD= 0.2000000E-02 threshold for treating states as degnerate
   RTIME   =   -0.100 relaxation time in fs
  (WPLASMAI=    0.000 imaginary part of plasma frequency in eV, 0.658/RTIME)
   DFIELD  = 0.0000000 0.0000000 0.0000000 field for delta impulse in time
 
  Optional k-point grid parameters
   LKPOINTS_OPT  =     F    use optional k-point grid
   KPOINTS_OPT_MODE=     1    mode for optional k-point grid
 
 Orbital magnetization related:
   ORBITALMAG=     F  switch on orbital magnetization
   LCHIMAG   =     F  perturbation theory with respect to B field
   DQ        =  0.001000  dq finite difference perturbation B field
   LLRAUG    =     F  two centre corrections for induced B field
   LBONE     =     F  B-component reconstruction in AE one-centre
   LVGVCALC  =     T  calculate vGv susceptibility
   LVGVAPPL  =     F  apply vGv susceptibility instead of pGv for G=0

 Random number generation:
   RANDOM_GENERATOR = DEFAULT
   PCG_SEED         = not used


--------------------------------------------------------------------------------------------------------


 conjugate gradient relaxation of ions
 charge density and potential will be updated during run
 non-spin polarized calculation
 Variant of blocked Davidson
 Davidson routine will perform the subspace rotation
 perform sub-space diagonalisation
    after iterative eigenvector-optimisation
 modified Broyden-mixing scheme, WC =      100.0
 initial mixing is a Kerker type mixing with AMIX =  0.4000 and BMIX =      1.0000
 Hartree-type preconditioning will be used
 using additional bands            4
 reciprocal scheme for non local part
 use partial core corrections
 calculate Harris-corrections to forces 
   (improved forces if not selfconsistent)
 use gradient corrections 
 use of overlap-Matrix (Vanderbilt PP)
 Gauss-broadening in eV      SIGMA  =   0.20


--------------------------------------------------------------------------------------------------------


  energy-cutoff  :     1000.00
  volume of cell :     8000.00
      direct lattice vectors                 reciprocal lattice vectors
    20.000000000  0.000000000  0.000000000     0.050000000  0.000000000  0.000000000
     0.000000000 20.000000000  0.000000000     0.000000000  0.050000000  0.000000000
     0.000000000  0.000000000 20.000000000     0.000000000  0.000000000  0.050000000

  length of vectors
    20.000000000 20.000000000 20.000000000     0.050000000  0.050000000  0.050000000


 
 old parameters found on file WAVECAR:
  energy-cutoff  :      900.00
  volume of cell :     8000.00
      direct lattice vectors                 reciprocal lattice vectors
    20.000000000  0.000000000  0.000000000     0.050000000  0.000000000  0.000000000
     0.000000000 20.000000000  0.000000000     0.000000000  0.050000000  0.000000000
     0.000000000  0.000000000 20.000000000     0.000000000  0.000000000  0.050000000

  length of vectors

 
 k-points in units of 2pi/SCALE and weight: Automatically generated mesh            
   0.00000000  0.00000000  0.00000000       1.000
 
 k-points in reciprocal lattice and weights: Automatically generated mesh            
   0.00000000  0.00000000  0.00000000       1.000
 
 position of ions in fractional coordinates (direct lattice) 
   0.25539550  0.00000350  0.07226600
   0.20902250  0.00000200  0.00708400
   0.25669500  0.00000400  0.02228050
 
 position of ions in cartesian coordinates  (Angst):
   5.10791000  0.00007000  1.44532000
   4.18045000  0.00004000  0.14168000
   5.13390000  0.00008000  0.44561000
 


--------------------------------------------------------------------------------------------------------


 k-point   1 :   0.0000 0.0000 0.0000  plane waves:  574331

 maximum and minimum number of plane-waves per node :    574331   574331

 maximum number of plane-waves:    574331
 maximum index in each direction: 
   IXMAX=   51   IYMAX=   51   IZMAX=   51
   IXMIN=  -51   IYMIN=  -51   IZMIN=  -51


 serial   3D FFT for wavefunctions
 parallel 3D FFT for charge:
    minimum data exchange during FFTs selected (reduces bandwidth)


 total amount of memory used by VASP MPI-rank0  3333536. kBytes
=======================================================================

   base      :      30000. kBytes
   nonl-proj :     101082. kBytes
   fftplans  :    1121480. kBytes
   grid      :    2007449. kBytes
   one-center:          9. kBytes
   wavefun   :      73516. kBytes
 
     INWAV:  cpu time      0.1352: real time      0.1352
 Broyden mixing: mesh for mixing (old mesh)
   NGX =103   NGY =103   NGZ =103
  (NGX  =320   NGY  =320   NGZ  =320)
  gives a total of ****** points

 charge density for first step will be calculated from the start-wavefunctions


--------------------------------------------------------------------------------------------------------


 Maximum index for augmentation-charges         6454 (set IRDMAX)


--------------------------------------------------------------------------------------------------------


 initial charge from wavefunction
 First call to EWALD:  gamma=   0.089
 Maximum number of real-space cells 3x 3x 3
 Maximum number of reciprocal cells 3x 3x 3

    FEWALD:  cpu time      0.0007: real time      0.0007


--------------------------------------- Ionic step        1  -------------------------------------------




--------------------------------------- Iteration      1(   1)  ---------------------------------------


    POTLOK:  cpu time     10.5813: real time     10.5877
    SETDIJ:  cpu time      0.0020: real time      0.0020
     EDDAV:  cpu time      3.8246: real time      3.8262
       DOS:  cpu time      0.0001: real time      0.0001
    CHARGE:  cpu time      1.1668: real time      1.1676
    MIXING:  cpu time      0.3997: real time      0.4004
    --------------------------------------------
      LOOP:  cpu time     15.9745: real time     15.9841

 eigenvalue-minimisations  :    16
 total energy-change (2. order) :-0.1423108E+02  (-0.1521459E+00)
 number of electron       8.0000001 magnetization 
 augmentation part        0.6684086 magnetization 

 Broyden mixing:
  rms(total) = 0.11423E+00    rms(broyden)= 0.11423E+00
  rms(prec ) = 0.12356E+00
  weight for this iteration     100.00

 Free energy of the ion-electron system (eV)
  ---------------------------------------------------
  alpha Z        PSCENC =         0.02803141
  Ewald energy   TEWEN  =       116.41630449
  -Hartree energ DENC   =      -515.54130972
  -exchange      EXHF   =         0.00000000
  -V(xc)+E(xc)   XCENC  =        34.01763700
  PAW double counting   =       540.73008154     -542.79208991
  entropy T*S    EENTRO =        -0.00000000
  eigenvalues    EBANDS =      -104.44293611
  atomic energy  EATOM  =       457.35320486
  Solvation  Ediel_sol  =         0.00000000
  ---------------------------------------------------
  free energy    TOTEN  =       -14.23107644 eV

  energy without entropy =      -14.23107644  energy(sigma->0) =      -14.23107644


--------------------------------------------------------------------------------------------------------




--------------------------------------- Iteration      1(   2)  ---------------------------------------


    POTLOK:  cpu time      9.5042: real time      9.5095
    SETDIJ:  cpu time      0.0018: real time      0.0018
     EDDAV:  cpu time      4.9060: real time      4.9082
       DOS:  cpu time      0.0001: real time      0.0001
    CHARGE:  cpu time      1.0956: real time      1.0965
    MIXING:  cpu time      0.4206: real time      0.4206
    --------------------------------------------
      LOOP:  cpu time     15.9283: real time     15.9366

 eigenvalue-minimisations  :    24
 total energy-change (2. order) : 0.3390539E-01  (-0.1132121E-01)
 number of electron       8.0000001 magnetization 
 augmentation part        0.6776387 magnetization 

 Broyden mixing:
  rms(total) = 0.47223E-01    rms(broyden)= 0.47223E-01
  rms(prec ) = 0.50517E-01
  weight for this iteration     100.00

 eigenvalues of (default mixing * dielectric matrix)
  average eigenvalue GAMMA=   1.2953
  1.2953

 Free energy of the ion-electron system (eV)
  ---------------------------------------------------
  alpha Z        PSCENC =         0.02803141
  Ewald energy   TEWEN  =       116.41630449
  -Hartree energ DENC   =      -512.72635699
  -exchange      EXHF   =         0.00000000
  -V(xc)+E(xc)   XCENC  =        33.86647226
  PAW double counting   =       532.91794165     -534.96249072
  entropy T*S    EENTRO =        -0.00000000
  eigenvalues    EBANDS =      -107.09027800
  atomic energy  EATOM  =       457.35320486
  Solvation  Ediel_sol  =         0.00000000
  ---------------------------------------------------
  free energy    TOTEN  =       -14.19717105 eV

  energy without entropy =      -14.19717105  energy(sigma->0) =      -14.19717105


--------------------------------------------------------------------------------------------------------




--------------------------------------- Iteration      1(   3)  ---------------------------------------


    POTLOK:  cpu time      9.4175: real time      9.4213
    SETDIJ:  cpu time      0.0018: real time      0.0018
     EDDAV:  cpu time      4.8905: real time      4.8935
       DOS:  cpu time      0.0001: real time      0.0001
    CHARGE:  cpu time      1.1069: real time      1.1091
    MIXING:  cpu time      0.4394: real time      0.4401
    --------------------------------------------
      LOOP:  cpu time     15.8563: real time     15.8659

 eigenvalue-minimisations  :    24
 total energy-change (2. order) : 0.5579648E-02  (-0.1331900E-02)
 number of electron       8.0000001 magnetization 
 augmentation part        0.6798617 magnetization 

 Broyden mixing:
  rms(total) = 0.20193E-01    rms(broyden)= 0.20193E-01
  rms(prec ) = 0.21336E-01
  weight for this iteration     100.00

 eigenvalues of (default mixing * dielectric matrix)
  average eigenvalue GAMMA=   1.5660
  1.2770  1.8550

 Free energy of the ion-electron system (eV)
  ---------------------------------------------------
  alpha Z        PSCENC =         0.02803141
  Ewald energy   TEWEN  =       116.41630449
  -Hartree energ DENC   =      -511.90384420
  -exchange      EXHF   =         0.00000000
  -V(xc)+E(xc)   XCENC  =        33.82688420
  PAW double counting   =       529.35262217     -531.40031211
  entropy T*S    EENTRO =        -0.00000000
  eigenvalues    EBANDS =      -107.86448223
  atomic energy  EATOM  =       457.35320486
  Solvation  Ediel_sol  =         0.00000000
  ---------------------------------------------------
  free energy    TOTEN  =       -14.19159140 eV

  energy without entropy =      -14.19159140  energy(sigma->0) =      -14.19159140


--------------------------------------------------------------------------------------------------------




--------------------------------------- Iteration      1(   4)  ---------------------------------------


    POTLOK:  cpu time      9.3224: real time      9.3249
    SETDIJ:  cpu time      0.0019: real time      0.0019
     EDDAV:  cpu time      4.8941: real time      4.8977
       DOS:  cpu time      0.0001: real time      0.0001
    CHARGE:  cpu time      1.1058: real time      1.1068
    MIXING:  cpu time      0.4583: real time      0.4584
    --------------------------------------------
      LOOP:  cpu time     15.7824: real time     15.7897

 eigenvalue-minimisations  :    24
 total energy-change (2. order) : 0.5654627E-03  (-0.3770884E-03)
 number of electron       8.0000001 magnetization 
 augmentation part        0.6780859 magnetization 

 Broyden mixing:
  rms(total) = 0.53618E-02    rms(broyden)= 0.53618E-02
  rms(prec ) = 0.59474E-02
  weight for this iteration     100.00

 eigenvalues of (default mixing * dielectric matrix)
  average eigenvalue GAMMA=   1.4672
  2.1555  1.1230  1.1230

 Free energy of the ion-electron system (eV)
  ---------------------------------------------------
  alpha Z        PSCENC =         0.02803141
  Ewald energy   TEWEN  =       116.41630449
  -Hartree energ DENC   =      -511.83036232
  -exchange      EXHF   =         0.00000000
  -V(xc)+E(xc)   XCENC  =        33.82707262
  PAW double counting   =       528.02953971     -530.08455741
  entropy T*S    EENTRO =        -0.00000000
  eigenvalues    EBANDS =      -107.93025930
  atomic energy  EATOM  =       457.35320486
  Solvation  Ediel_sol  =         0.00000000
  ---------------------------------------------------
  free energy    TOTEN  =       -14.19102594 eV

  energy without entropy =      -14.19102594  energy(sigma->0) =      -14.19102594


--------------------------------------------------------------------------------------------------------




--------------------------------------- Iteration      1(   5)  ---------------------------------------


    POTLOK:  cpu time      9.2825: real time      9.2857
    SETDIJ:  cpu time      0.0018: real time      0.0018
     EDDAV:  cpu time      6.1406: real time      6.1425
       DOS:  cpu time      0.0001: real time      0.0001
    CHARGE:  cpu time      1.1037: real time      1.1037
    MIXING:  cpu time      0.4732: real time      0.4732
    --------------------------------------------
      LOOP:  cpu time     17.0018: real time     17.0070

 eigenvalue-minimisations  :    32
 total energy-change (2. order) :-0.3338343E-04  (-0.7455812E-04)
 number of electron       8.0000001 magnetization 
 augmentation part        0.6793291 magnetization 

 Broyden mixing:
  rms(total) = 0.33660E-02    rms(broyden)= 0.33659E-02
  rms(prec ) = 0.36297E-02
  weight for this iteration     100.00

 eigenvalues of (default mixing * dielectric matrix)
  average eigenvalue GAMMA=   1.5620
  2.4005  1.9210  1.1453  0.7813

 Free energy of the ion-electron system (eV)
  ---------------------------------------------------
  alpha Z        PSCENC =         0.02803141
  Ewald energy   TEWEN  =       116.41630449
  -Hartree energ DENC   =      -511.60883732
  -exchange      EXHF   =         0.00000000
  -V(xc)+E(xc)   XCENC  =        33.81624805
  PAW double counting   =       527.60199597     -529.65456273
  entropy T*S    EENTRO =        -0.00000000
  eigenvalues    EBANDS =      -108.14344405
  atomic energy  EATOM  =       457.35320486
  Solvation  Ediel_sol  =         0.00000000
  ---------------------------------------------------
  free energy    TOTEN  =       -14.19105933 eV

  energy without entropy =      -14.19105933  energy(sigma->0) =      -14.19105933


--------------------------------------------------------------------------------------------------------




--------------------------------------- Iteration      1(   6)  ---------------------------------------


    POTLOK:  cpu time      9.1997: real time      9.2004
    SETDIJ:  cpu time      0.0019: real time      0.0019
     EDDAV:  cpu time      6.1183: real time      6.1183
       DOS:  cpu time      0.0001: real time      0.0001
    CHARGE:  cpu time      1.1004: real time      1.1004
    MIXING:  cpu time      0.4910: real time      0.4910
    --------------------------------------------
      LOOP:  cpu time     16.9113: real time     16.9120

 eigenvalue-minimisations  :    32
 total energy-change (2. order) :-0.9624213E-04  (-0.3353899E-05)
 number of electron       8.0000001 magnetization 
 augmentation part        0.6792329 magnetization 

 Broyden mixing:
  rms(total) = 0.10827E-02    rms(broyden)= 0.10827E-02
  rms(prec ) = 0.13065E-02
  weight for this iteration     100.00

 eigenvalues of (default mixing * dielectric matrix)
  average eigenvalue GAMMA=   1.5078
  2.5248  1.9421  1.0682  1.0682  0.9355

 Free energy of the ion-electron system (eV)
  ---------------------------------------------------
  alpha Z        PSCENC =         0.02803141
  Ewald energy   TEWEN  =       116.41630449
  -Hartree energ DENC   =      -511.56958216
  -exchange      EXHF   =         0.00000000
  -V(xc)+E(xc)   XCENC  =        33.81542600
  PAW double counting   =       527.73817668     -529.79129561
  entropy T*S    EENTRO =        -0.00000000
  eigenvalues    EBANDS =      -108.18142124
  atomic energy  EATOM  =       457.35320486
  Solvation  Ediel_sol  =         0.00000000
  ---------------------------------------------------
  free energy    TOTEN  =       -14.19115557 eV

  energy without entropy =      -14.19115557  energy(sigma->0) =      -14.19115557


--------------------------------------------------------------------------------------------------------




--------------------------------------- Iteration      1(   7)  ---------------------------------------


    POTLOK:  cpu time      9.1597: real time      9.1597
    SETDIJ:  cpu time      0.0019: real time      0.0019
     EDDAV:  cpu time      6.1415: real time      6.1416
       DOS:  cpu time      0.0001: real time      0.0001
    CHARGE:  cpu time      1.0874: real time      1.0874
    MIXING:  cpu time      0.5098: real time      0.5099
    --------------------------------------------
      LOOP:  cpu time     16.9004: real time     16.9005

 eigenvalue-minimisations  :    32
 total energy-change (2. order) :-0.3771362E-04  (-0.1714215E-05)
 number of electron       8.0000001 magnetization 
 augmentation part        0.6790466 magnetization 

 Broyden mixing:
  rms(total) = 0.34059E-03    rms(broyden)= 0.34059E-03
  rms(prec ) = 0.60193E-03
  weight for this iteration     100.00

 eigenvalues of (default mixing * dielectric matrix)
  average eigenvalue GAMMA=   1.7259
  3.0741  2.3613  1.9573  0.9982  0.9982  0.9664

 Free energy of the ion-electron system (eV)
  ---------------------------------------------------
  alpha Z        PSCENC =         0.02803141
  Ewald energy   TEWEN  =       116.41630449
  -Hartree energ DENC   =      -511.57060897
  -exchange      EXHF   =         0.00000000
  -V(xc)+E(xc)   XCENC  =        33.81601052
  PAW double counting   =       527.83354859     -529.88728612
  entropy T*S    EENTRO =        -0.00000000
  eigenvalues    EBANDS =      -108.18039805
  atomic energy  EATOM  =       457.35320486
  Solvation  Ediel_sol  =         0.00000000
  ---------------------------------------------------
  free energy    TOTEN  =       -14.19119328 eV

  energy without entropy =      -14.19119328  energy(sigma->0) =      -14.19119328


--------------------------------------------------------------------------------------------------------




--------------------------------------- Iteration      1(   8)  ---------------------------------------


    POTLOK:  cpu time      9.0918: real time      9.0918
    SETDIJ:  cpu time      0.0019: real time      0.0019
     EDDAV:  cpu time      4.8654: real time      4.8655
       DOS:  cpu time      0.0001: real time      0.0001
    CHARGE:  cpu time      1.0982: real time      1.0982
    MIXING:  cpu time      0.5397: real time      0.5397
    --------------------------------------------
      LOOP:  cpu time     15.5971: real time     15.5971

 eigenvalue-minimisations  :    24
 total energy-change (2. order) :-0.6078738E-04  (-0.1567686E-05)
 number of electron       8.0000001 magnetization 
 augmentation part        0.6790794 magnetization 

 Broyden mixing:
  rms(total) = 0.17959E-03    rms(broyden)= 0.17959E-03
  rms(prec ) = 0.28386E-03
  weight for this iteration     100.00

 eigenvalues of (default mixing * dielectric matrix)
  average eigenvalue GAMMA=   1.7265
  3.6727  2.4926  1.8318  1.2580  0.9896  0.9896  0.8515

 Free energy of the ion-electron system (eV)
  ---------------------------------------------------
  alpha Z        PSCENC =         0.02803141
  Ewald energy   TEWEN  =       116.41630449
  -Hartree energ DENC   =      -511.52139956
  -exchange      EXHF   =         0.00000000
  -V(xc)+E(xc)   XCENC  =        33.81450770
  PAW double counting   =       527.92848804     -529.98233885
  entropy T*S    EENTRO =        -0.00000000
  eigenvalues    EBANDS =      -108.22805215
  atomic energy  EATOM  =       457.35320486
  Solvation  Ediel_sol  =         0.00000000
  ---------------------------------------------------
  free energy    TOTEN  =       -14.19125407 eV

  energy without entropy =      -14.19125407  energy(sigma->0) =      -14.19125407


--------------------------------------------------------------------------------------------------------




--------------------------------------- Iteration      1(   9)  ---------------------------------------


    POTLOK:  cpu time      9.0599: real time      9.0599
    SETDIJ:  cpu time      0.0018: real time      0.0018
     EDDAV:  cpu time      6.1220: real time      6.1220
       DOS:  cpu time      0.0001: real time      0.0001
    CHARGE:  cpu time      1.0986: real time      1.0986
    MIXING:  cpu time      0.5694: real time      0.5694
    --------------------------------------------
      LOOP:  cpu time     16.8518: real time     16.8518

 eigenvalue-minimisations  :    32
 total energy-change (2. order) :-0.1165478E-04  (-0.1008041E-06)
 number of electron       8.0000001 magnetization 
 augmentation part        0.6790664 magnetization 

 Broyden mixing:
  rms(total) = 0.15197E-03    rms(broyden)= 0.15197E-03
  rms(prec ) = 0.22450E-03
  weight for this iteration     100.00

 eigenvalues of (default mixing * dielectric matrix)
  average eigenvalue GAMMA=   1.9967
  4.9227  2.7584  2.4084  1.8849  1.1578  0.9759  0.9759  0.8897

 Free energy of the ion-electron system (eV)
  ---------------------------------------------------
  alpha Z        PSCENC =         0.02803141
  Ewald energy   TEWEN  =       116.41630449
  -Hartree energ DENC   =      -511.51629939
  -exchange      EXHF   =         0.00000000
  -V(xc)+E(xc)   XCENC  =        33.81449174
  PAW double counting   =       527.93763930     -529.99149989
  entropy T*S    EENTRO =        -0.00000000
  eigenvalues    EBANDS =      -108.23313823
  atomic energy  EATOM  =       457.35320486
  Solvation  Ediel_sol  =         0.00000000
  ---------------------------------------------------
  free energy    TOTEN  =       -14.19126572 eV

  energy without entropy =      -14.19126572  energy(sigma->0) =      -14.19126572


--------------------------------------------------------------------------------------------------------




--------------------------------------- Iteration      1(  10)  ---------------------------------------


    POTLOK:  cpu time      8.9801: real time      8.9801
    SETDIJ:  cpu time      0.0018: real time      0.0018
     EDDAV:  cpu time      4.8667: real time      4.8667
       DOS:  cpu time      0.0001: real time      0.0001
    CHARGE:  cpu time      1.0988: real time      1.0988
    MIXING:  cpu time      0.5955: real time      0.5955
    --------------------------------------------
      LOOP:  cpu time     15.5430: real time     15.5431

 eigenvalue-minimisations  :    24
 total energy-change (2. order) :-0.1819796E-04  (-0.2964658E-06)
 number of electron       8.0000001 magnetization 
 augmentation part        0.6790998 magnetization 

 Broyden mixing:
  rms(total) = 0.10949E-03    rms(broyden)= 0.10949E-03
  rms(prec ) = 0.13542E-03
  weight for this iteration     100.00

 eigenvalues of (default mixing * dielectric matrix)
  average eigenvalue GAMMA=   1.9814
  5.4329  3.0391  2.4559  1.8744  1.0901  1.0901  0.9555  0.9555  0.9395

 Free energy of the ion-electron system (eV)
  ---------------------------------------------------
  alpha Z        PSCENC =         0.02803141
  Ewald energy   TEWEN  =       116.41630449
  -Hartree energ DENC   =      -511.50163130
  -exchange      EXHF   =         0.00000000
  -V(xc)+E(xc)   XCENC  =        33.81408833
  PAW double counting   =       527.90466265     -529.95842276
  entropy T*S    EENTRO =        -0.00000000
  eigenvalues    EBANDS =      -108.24752160
  atomic energy  EATOM  =       457.35320486
  Solvation  Ediel_sol  =         0.00000000
  ---------------------------------------------------
  free energy    TOTEN  =       -14.19128392 eV

  energy without entropy =      -14.19128392  energy(sigma->0) =      -14.19128392


--------------------------------------------------------------------------------------------------------




--------------------------------------- Iteration      1(  11)  ---------------------------------------


    POTLOK:  cpu time      8.9601: real time      8.9606
    SETDIJ:  cpu time      0.0019: real time      0.0019
     EDDAV:  cpu time      4.8703: real time      4.8703
       DOS:  cpu time      0.0001: real time      0.0001
    CHARGE:  cpu time      1.0982: real time      1.0982
    MIXING:  cpu time      0.6217: real time      0.6217
    --------------------------------------------
      LOOP:  cpu time     15.5522: real time     15.5528

 eigenvalue-minimisations  :    24
 total energy-change (2. order) :-0.5757115E-05  (-0.3515313E-07)
 number of electron       8.0000001 magnetization 
 augmentation part        0.6790802 magnetization 

 Broyden mixing:
  rms(total) = 0.48471E-04    rms(broyden)= 0.48471E-04
  rms(prec ) = 0.68564E-04
  weight for this iteration     100.00

 eigenvalues of (default mixing * dielectric matrix)
  average eigenvalue GAMMA=   2.2388
  6.7128  3.8146  2.6853  2.3705  1.8891  1.1152  0.9970  0.9970  0.9033  0.9033

 Free energy of the ion-electron system (eV)
  ---------------------------------------------------
  alpha Z        PSCENC =         0.02803141
  Ewald energy   TEWEN  =       116.41630449
  -Hartree energ DENC   =      -511.50391005
  -exchange      EXHF   =         0.00000000
  -V(xc)+E(xc)   XCENC  =        33.81426627
  PAW double counting   =       527.90871163     -529.96251428
  entropy T*S    EENTRO =        -0.00000000
  eigenvalues    EBANDS =      -108.24538400
  atomic energy  EATOM  =       457.35320486
  Solvation  Ediel_sol  =         0.00000000
  ---------------------------------------------------
  free energy    TOTEN  =       -14.19128968 eV

  energy without entropy =      -14.19128968  energy(sigma->0) =      -14.19128968


--------------------------------------------------------------------------------------------------------




--------------------------------------- Iteration      1(  12)  ---------------------------------------


    POTLOK:  cpu time      8.9921: real time      8.9921
    SETDIJ:  cpu time      0.0018: real time      0.0018
     EDDAV:  cpu time      3.6504: real time      3.6504
       DOS:  cpu time      0.0001: real time      0.0001
    CHARGE:  cpu time      1.0862: real time      1.0862
    MIXING:  cpu time      0.6511: real time      0.6511
    --------------------------------------------
      LOOP:  cpu time     14.3817: real time     14.3817

 eigenvalue-minimisations  :    16
 total energy-change (2. order) :-0.7913078E-05  (-0.4299558E-07)
 number of electron       8.0000001 magnetization 
 augmentation part        0.6790799 magnetization 

 Broyden mixing:
  rms(total) = 0.21478E-04    rms(broyden)= 0.21478E-04
  rms(prec ) = 0.30135E-04
  weight for this iteration     100.00

 eigenvalues of (default mixing * dielectric matrix)
  average eigenvalue GAMMA=   2.2636
  7.1796  4.1431  2.7386  2.3915  1.7626  1.7626  1.0987  0.9805  0.9805  0.9548
  0.9074

 Free energy of the ion-electron system (eV)
  ---------------------------------------------------
  alpha Z        PSCENC =         0.02803141
  Ewald energy   TEWEN  =       116.41630449
  -Hartree energ DENC   =      -511.50324527
  -exchange      EXHF   =         0.00000000
  -V(xc)+E(xc)   XCENC  =        33.81429664
  PAW double counting   =       527.91767528     -529.97148631
  entropy T*S    EENTRO =        -0.00000000
  eigenvalues    EBANDS =      -108.24607869
  atomic energy  EATOM  =       457.35320486
  Solvation  Ediel_sol  =         0.00000000
  ---------------------------------------------------
  free energy    TOTEN  =       -14.19129759 eV

  energy without entropy =      -14.19129759  energy(sigma->0) =      -14.19129759


--------------------------------------------------------------------------------------------------------




--------------------------------------- Iteration      1(  13)  ---------------------------------------


    POTLOK:  cpu time      9.0376: real time      9.0376
    SETDIJ:  cpu time      0.0019: real time      0.0019
     EDDAV:  cpu time      4.8670: real time      4.8670
       DOS:  cpu time      0.0001: real time      0.0001
    CHARGE:  cpu time      1.0976: real time      1.0976
    MIXING:  cpu time      0.6892: real time      0.6892
    --------------------------------------------
      LOOP:  cpu time     15.6933: real time     15.6933

 eigenvalue-minimisations  :    24
 total energy-change (2. order) :-0.3043526E-05  (-0.7468870E-08)
 number of electron       8.0000001 magnetization 
 augmentation part        0.6790866 magnetization 

 Broyden mixing:
  rms(total) = 0.20190E-04    rms(broyden)= 0.20190E-04
  rms(prec ) = 0.24642E-04
  weight for this iteration     100.00

 eigenvalues of (default mixing * dielectric matrix)
  average eigenvalue GAMMA=   2.3450
  7.9331  4.4919  3.0644  2.4741  2.3453  1.8947  1.1129  1.1129  0.9613  0.9613
  0.8938  0.8938

 Free energy of the ion-electron system (eV)
  ---------------------------------------------------
  alpha Z        PSCENC =         0.02803141
  Ewald energy   TEWEN  =       116.41630449
  -Hartree energ DENC   =      -511.50234376
  -exchange      EXHF   =         0.00000000
  -V(xc)+E(xc)   XCENC  =        33.81425796
  PAW double counting   =       527.91578674     -529.96958849
  entropy T*S    EENTRO =        -0.00000000
  eigenvalues    EBANDS =      -108.24695385
  atomic energy  EATOM  =       457.35320486
  Solvation  Ediel_sol  =         0.00000000
  ---------------------------------------------------
  free energy    TOTEN  =       -14.19130063 eV

  energy without entropy =      -14.19130063  energy(sigma->0) =      -14.19130063


--------------------------------------------------------------------------------------------------------




--------------------------------------- Iteration      1(  14)  ---------------------------------------


    POTLOK:  cpu time      9.2015: real time      9.2078
    SETDIJ:  cpu time      0.0019: real time      0.0019
     EDDAV:  cpu time      3.6454: real time      3.6483
       DOS:  cpu time      0.0001: real time      0.0001
    CHARGE:  cpu time      1.1020: real time      1.1027
    MIXING:  cpu time      0.7274: real time      0.7275
    --------------------------------------------
      LOOP:  cpu time     14.6782: real time     14.6883

 eigenvalue-minimisations  :    16
 total energy-change (2. order) :-0.1952095E-05  (-0.4421025E-08)
 number of electron       8.0000001 magnetization 
 augmentation part        0.6790807 magnetization 

 Broyden mixing:
  rms(total) = 0.14876E-04    rms(broyden)= 0.14876E-04
  rms(prec ) = 0.17061E-04
  weight for this iteration     100.00

 eigenvalues of (default mixing * dielectric matrix)
  average eigenvalue GAMMA=   2.3415
  8.0748  4.9933  3.2250  2.6544  2.3203  1.8791  1.4122  1.0854  1.0854  0.9419
  0.9419  0.9302  0.8952

 Free energy of the ion-electron system (eV)
  ---------------------------------------------------
  alpha Z        PSCENC =         0.02803141
  Ewald energy   TEWEN  =       116.41630449
  -Hartree energ DENC   =      -511.50296817
  -exchange      EXHF   =         0.00000000
  -V(xc)+E(xc)   XCENC  =        33.81430135
  PAW double counting   =       527.91656763     -529.97038449
  entropy T*S    EENTRO =        -0.00000000
  eigenvalues    EBANDS =      -108.24635966
  atomic energy  EATOM  =       457.35320486
  Solvation  Ediel_sol  =         0.00000000
  ---------------------------------------------------
  free energy    TOTEN  =       -14.19130259 eV

  energy without entropy =      -14.19130259  energy(sigma->0) =      -14.19130259


--------------------------------------------------------------------------------------------------------




--------------------------------------- Iteration      1(  15)  ---------------------------------------


    POTLOK:  cpu time      9.3018: real time      9.3061
    SETDIJ:  cpu time      0.0018: real time      0.0018
     EDDAV:  cpu time      4.8696: real time      4.8703
       DOS:  cpu time      0.0001: real time      0.0001
    --------------------------------------------
      LOOP:  cpu time     14.1733: real time     14.1783

 eigenvalue-minimisations  :    24
 total energy-change (2. order) :-0.7381099E-06  (-0.1113449E-08)
 number of electron       8.0000001 magnetization 
 augmentation part        0.6790807 magnetization 

 Free energy of the ion-electron system (eV)
  ---------------------------------------------------
  alpha Z        PSCENC =         0.02803141
  Ewald energy   TEWEN  =       116.41630449
  -Hartree energ DENC   =      -511.50250623
  -exchange      EXHF   =         0.00000000
  -V(xc)+E(xc)   XCENC  =        33.81427881
  PAW double counting   =       527.91573801     -529.96954358
  entropy T*S    EENTRO =        -0.00000000
  eigenvalues    EBANDS =      -108.24681109
  atomic energy  EATOM  =       457.35320486
  Solvation  Ediel_sol  =         0.00000000
  ---------------------------------------------------
  free energy    TOTEN  =       -14.19130332 eV

  energy without entropy =      -14.19130332  energy(sigma->0) =      -14.19130332


--------------------------------------------------------------------------------------------------------




 average (electrostatic) potential at core
  the test charge radii are     0.5201  0.7215
  (the norm of the test charge is              1.0000)
       1 -44.3684       2 -44.3617       3 -80.5324
 
 
 
 E-fermi :  -6.1754     XC(G=0):  -0.0942     alpha+bet : -0.0163

 Fermi energy:        -6.1753616044

 k-point     1 :       0.0000    0.0000    0.0000
  band No.  band energies     occupation 
      1     -24.9516      2.00000
      2     -12.9111      2.00000
      3      -9.1349      2.00000
      4      -7.1258      2.00000
      5      -1.0744      0.00000
      6       0.0183      0.00000
      7       0.1998      0.00000
      8       0.3102      0.00000


--------------------------------------------------------------------------------------------------------


 soft charge-density along one line, spin component           1
         0         1         2         3         4         5         6         7         8         9
 total charge-density along one line
 
 pseudopotential strength for first ion, spin component:           1
 -2.381  -4.111  -0.000   0.003   0.000
 -4.111  -7.012  -0.000   0.008   0.000
 -0.000  -0.000  -0.326  -0.000  -0.000
  0.003   0.008  -0.000  -0.318  -0.000
  0.000   0.000  -0.000  -0.000  -0.326
 total augmentation occupancy for first ion, spin component:           1
  3.594  -0.757   0.000  -0.649   0.005
 -0.757   0.204   0.000   0.136  -0.006
  0.000   0.000   0.035   0.000   0.000
 -0.649   0.136   0.000   0.118  -0.003
  0.005  -0.006   0.000  -0.003   0.023


------------------------ aborting loop because EDIFF is reached ----------------------------------------


    CHARGE:  cpu time      1.0990: real time      1.0990
    FORLOC:  cpu time      0.8297: real time      0.8297
    FORNL :  cpu time      0.3519: real time      0.3519
    STRESS:  cpu time      3.7779: real time      3.7779
    FORCOR:  cpu time     10.5837: real time     10.5837
    FORHAR:  cpu time      2.8766: real time      2.8766
    MIXING:  cpu time      0.7596: real time      0.7596
    OFIELD:  cpu time      0.0000: real time      0.0000

  FORCE on cell =-STRESS in cart. coord.  units (eV):
  Direction    XX          YY          ZZ          XY          YZ          ZX
  --------------------------------------------------------------------------------------
  Alpha Z     0.02803     0.02803     0.02803
  Ewald      59.69800   -21.81814    78.53640     0.00341     0.00032    26.95786
  Hartree   174.39639   159.30108   177.80524     0.00023    -0.00014     4.88991
  E(xc)     -35.84573   -36.20361   -35.77168    -0.00000     0.00000     0.10648
  Local    -318.55255  -246.16623  -335.76582    -0.00107    -0.00100   -24.65234
  n-local   -30.02731   -30.47663   -29.77925     0.00055    -0.00044     0.36797
  augment     6.37390     8.09206     6.05116    -0.00001     0.00003    -0.46396
  Kinetic   142.78140   167.23959   137.40202    -0.00159     0.00024    -7.74678
  Fock        0.00000     0.00000     0.00000     0.00000     0.00000     0.00000
  -------------------------------------------------------------------------------------
  Total      -1.14788    -0.00384    -1.49391     0.00000     0.00000    -0.54087
  in kB      -0.22989    -0.00077    -0.29919     0.00000     0.00000    -0.10832
  external pressure =       -0.18 kB  Pullay stress =        0.00 kB


 VOLUME and BASIS-vectors are now :
 -----------------------------------------------------------------------------
  energy-cutoff  :     1000.00
  volume of cell :     8000.00
      direct lattice vectors                 reciprocal lattice vectors
    20.000000000  0.000000000  0.000000000     0.050000000  0.000000000  0.000000000
     0.000000000 20.000000000  0.000000000     0.000000000  0.050000000  0.000000000
     0.000000000  0.000000000 20.000000000     0.000000000  0.000000000  0.050000000

  length of vectors
    20.000000000 20.000000000 20.000000000     0.050000000  0.050000000  0.050000000


 FORCES acting on ions
    electron-ion (+dipol)            ewald-force                    non-local-force                 convergence-correction
 -----------------------------------------------------------------------------------------------
   -.107E+01 -.814E-02 -.847E+02   0.101E+01 -.758E-03 0.909E+02   -.111E+00 -.136E-19 -.752E+01   -.456E-05 0.617E-09 0.190E-04
   0.796E+02 -.434E-02 0.288E+02   -.854E+02 -.355E-02 -.308E+02   0.705E+01 0.136E-19 0.257E+01   -.183E-04 0.174E-10 -.382E-05
   -.468E+02 -.116E+00 0.334E+02   0.844E+02 0.431E-02 -.601E+02   -.386E+02 -.867E-18 0.275E+02   0.885E-05 0.382E-07 -.482E-04
 -----------------------------------------------------------------------------------------------
   0.317E+02 -.129E+00 -.225E+02   0.000E+00 -.607E-17 -.711E-14   -.317E+02 -.867E-18 0.225E+02   -.140E-04 0.388E-07 -.330E-04
 
 
 POSITION                                       TOTAL-FORCE (eV/Angst)
 -----------------------------------------------------------------------------------
      5.10791      0.00007      1.44532        -0.175133      0.000000     -1.306291
      4.18045      0.00004      0.14168         1.202818      0.000000      0.602737
      5.13390      0.00008      0.44561        -1.027685     -0.000000      0.703554
 -----------------------------------------------------------------------------------
    total drift:                                0.000115     -0.128761     -0.000192


--------------------------------------------------------------------------------------------------------



  FREE ENERGIE OF THE ION-ELECTRON SYSTEM (eV)
  ---------------------------------------------------
  free  energy   TOTEN  =       -14.19130332 eV

  energy  without entropy=      -14.19130332  energy(sigma->0) =      -14.19130332
 


--------------------------------------------------------------------------------------------------------


    POTLOK:  cpu time      9.3421: real time      9.3422


--------------------------------------------------------------------------------------------------------




--------------------------------------------------------------------------------------------------------


    WAVPRE:  cpu time     26.6843: real time     26.6937
    FEWALD:  cpu time      0.0001: real time      0.0001
    ORTHCH:  cpu time      0.1441: real time      0.1441
     LOOP+:  cpu time    293.2776: real time    293.3435


--------------------------------------- Ionic step        2  -------------------------------------------




--------------------------------------- Iteration      2(   1)  ---------------------------------------


    POTLOK:  cpu time      9.2710: real time      9.2710
    SETDIJ:  cpu time      0.0018: real time      0.0018
     EDDAV:  cpu time      3.6357: real time      3.6357
       DOS:  cpu time      0.0001: real time      0.0001
    CHARGE:  cpu time      1.1005: real time      1.1008
    MIXING:  cpu time      0.4088: real time      0.4089
    --------------------------------------------
      LOOP:  cpu time     14.4180: real time     14.4183

 eigenvalue-minimisations  :    16
 total energy-change (2. order) : 0.1891461E+00  (-0.2972880E+01)
 number of electron       8.0000000 magnetization 
 augmentation part        0.7466530 magnetization 

 Broyden mixing:
  rms(total) = 0.20633E+00    rms(broyden)= 0.20633E+00
  rms(prec ) = 0.21801E+00
  weight for this iteration     100.00

 Free energy of the ion-electron system (eV)
  ---------------------------------------------------
  alpha Z        PSCENC =         0.02803141
  Ewald energy   TEWEN  =       136.00659171
  -Hartree energ DENC   =      -520.52252904
  -exchange      EXHF   =         0.00000000
  -V(xc)+E(xc)   XCENC  =        34.23609304
  PAW double counting   =       527.91585479     -529.96966093
  entropy T*S    EENTRO =        -0.00000000
  eigenvalues    EBANDS =      -119.04974230
  atomic energy  EATOM  =       457.35320486
  Solvation  Ediel_sol  =         0.00000000
  ---------------------------------------------------
  free energy    TOTEN  =       -14.00215645 eV

  energy without entropy =      -14.00215645  energy(sigma->0) =      -14.00215645


--------------------------------------------------------------------------------------------------------




--------------------------------------- Iteration      2(   2)  ---------------------------------------


    POTLOK:  cpu time      8.7916: real time      8.7916
    SETDIJ:  cpu time      0.0018: real time      0.0018
     EDDAV:  cpu time      3.6562: real time      3.6562
       DOS:  cpu time      0.0001: real time      0.0001
    CHARGE:  cpu time      1.0899: real time      1.0899
    MIXING:  cpu time      0.4246: real time      0.4246
    --------------------------------------------
      LOOP:  cpu time     13.9643: real time     13.9643

 eigenvalue-minimisations  :    16
 total energy-change (2. order) : 0.4360336E-01  (-0.6836443E-01)
 number of electron       8.0000000 magnetization 
 augmentation part        0.7366553 magnetization 

 Broyden mixing:
  rms(total) = 0.85419E-01    rms(broyden)= 0.85418E-01
  rms(prec ) = 0.89248E-01
  weight for this iteration     100.00

 eigenvalues of (default mixing * dielectric matrix)
  average eigenvalue GAMMA=   1.2829
  1.2829

 Free energy of the ion-electron system (eV)
  ---------------------------------------------------
  alpha Z        PSCENC =         0.02803141
  Ewald energy   TEWEN  =       136.00659171
  -Hartree energ DENC   =      -525.12855509
  -exchange      EXHF   =         0.00000000
  -V(xc)+E(xc)   XCENC  =        34.49646768
  PAW double counting   =       557.45336902     -559.59363039
  entropy T*S    EENTRO =        -0.00000000
  eigenvalues    EBANDS =      -114.57403228
  atomic energy  EATOM  =       457.35320486
  Solvation  Ediel_sol  =         0.00000000
  ---------------------------------------------------
  free energy    TOTEN  =       -13.95855309 eV

  energy without entropy =      -13.95855309  energy(sigma->0) =      -13.95855309


--------------------------------------------------------------------------------------------------------




--------------------------------------- Iteration      2(   3)  ---------------------------------------


    POTLOK:  cpu time      8.8844: real time      8.8849
    SETDIJ:  cpu time      0.0018: real time      0.0018
     EDDAV:  cpu time      3.6368: real time      3.6368
       DOS:  cpu time      0.0001: real time      0.0001
    CHARGE:  cpu time      1.1021: real time      1.1021
    MIXING:  cpu time      0.4408: real time      0.4408
    --------------------------------------------
      LOOP:  cpu time     14.0660: real time     14.0665

 eigenvalue-minimisations  :    16
 total energy-change (2. order) : 0.1042043E-01  (-0.6273902E-02)
 number of electron       8.0000000 magnetization 
 augmentation part        0.7271194 magnetization 

 Broyden mixing:
  rms(total) = 0.37517E-01    rms(broyden)= 0.37517E-01
  rms(prec ) = 0.39046E-01
  weight for this iteration     100.00

 eigenvalues of (default mixing * dielectric matrix)
  average eigenvalue GAMMA=   1.3488
  1.3488  1.3488

 Free energy of the ion-electron system (eV)
  ---------------------------------------------------
  alpha Z        PSCENC =         0.02803141
  Ewald energy   TEWEN  =       136.00659171
  -Hartree energ DENC   =      -526.84370028
  -exchange      EXHF   =         0.00000000
  -V(xc)+E(xc)   XCENC  =        34.59469260
  PAW double counting   =       577.86154344     -580.05418401
  entropy T*S    EENTRO =        -0.00000000
  eigenvalues    EBANDS =      -112.89431239
  atomic energy  EATOM  =       457.35320486
  Solvation  Ediel_sol  =         0.00000000
  ---------------------------------------------------
  free energy    TOTEN  =       -13.94813266 eV

  energy without entropy =      -13.94813266  energy(sigma->0) =      -13.94813266


--------------------------------------------------------------------------------------------------------




--------------------------------------- Iteration      2(   4)  ---------------------------------------


    POTLOK:  cpu time      9.0108: real time      9.0108
    SETDIJ:  cpu time      0.0019: real time      0.0019
     EDDAV:  cpu time      4.8716: real time      4.8716
       DOS:  cpu time      0.0001: real time      0.0001
    CHARGE:  cpu time      1.1022: real time      1.1022
    MIXING:  cpu time      0.4581: real time      0.4581
    --------------------------------------------
      LOOP:  cpu time     15.4447: real time     15.4446

 eigenvalue-minimisations  :    24
 total energy-change (2. order) : 0.1422341E-02  (-0.1270852E-02)
 number of electron       8.0000000 magnetization 
 augmentation part        0.7318756 magnetization 

 Broyden mixing:
  rms(total) = 0.19733E-01    rms(broyden)= 0.19733E-01
  rms(prec ) = 0.20633E-01
  weight for this iteration     100.00

 eigenvalues of (default mixing * dielectric matrix)
  average eigenvalue GAMMA=   1.4414
  2.3374  0.9934  0.9934

 Free energy of the ion-electron system (eV)
  ---------------------------------------------------
  alpha Z        PSCENC =         0.02803141
  Ewald energy   TEWEN  =       136.00659171
  -Hartree energ DENC   =      -526.27186261
  -exchange      EXHF   =         0.00000000
  -V(xc)+E(xc)   XCENC  =        34.56392647
  PAW double counting   =       585.22371191     -587.41594515
  entropy T*S    EENTRO =        -0.00000000
  eigenvalues    EBANDS =      -113.43436891
  atomic energy  EATOM  =       457.35320486
  Solvation  Ediel_sol  =         0.00000000
  ---------------------------------------------------
  free energy    TOTEN  =       -13.94671032 eV

  energy without entropy =      -13.94671032  energy(sigma->0) =      -13.94671032


--------------------------------------------------------------------------------------------------------




--------------------------------------- Iteration      2(   5)  ---------------------------------------


    POTLOK:  cpu time      9.0757: real time      9.0758
    SETDIJ:  cpu time      0.0018: real time      0.0018
     EDDAV:  cpu time      4.8693: real time      4.8693
       DOS:  cpu time      0.0001: real time      0.0001
    CHARGE:  cpu time      1.1027: real time      1.1027
    MIXING:  cpu time      0.4730: real time      0.4730
    --------------------------------------------
      LOOP:  cpu time     15.5226: real time     15.5226

 eigenvalue-minimisations  :    24
 total energy-change (2. order) : 0.4904406E-03  (-0.3241079E-03)
 number of electron       8.0000000 magnetization 
 augmentation part        0.7299780 magnetization 

 Broyden mixing:
  rms(total) = 0.28832E-02    rms(broyden)= 0.28832E-02
  rms(prec ) = 0.31752E-02
  weight for this iteration     100.00

 eigenvalues of (default mixing * dielectric matrix)
  average eigenvalue GAMMA=   1.4977
  2.3047  1.6349  1.1386  0.9125

 Free energy of the ion-electron system (eV)
  ---------------------------------------------------
  alpha Z        PSCENC =         0.02803141
  Ewald energy   TEWEN  =       136.00659171
  -Hartree energ DENC   =      -526.69865513
  -exchange      EXHF   =         0.00000000
  -V(xc)+E(xc)   XCENC  =        34.58893295
  PAW double counting   =       594.20291402     -596.41512619
  entropy T*S    EENTRO =        -0.00000000
  eigenvalues    EBANDS =      -113.01211351
  atomic energy  EATOM  =       457.35320486
  Solvation  Ediel_sol  =         0.00000000
  ---------------------------------------------------
  free energy    TOTEN  =       -13.94621988 eV

  energy without entropy =      -13.94621988  energy(sigma->0) =      -13.94621988


--------------------------------------------------------------------------------------------------------




--------------------------------------- Iteration      2(   6)  ---------------------------------------


    POTLOK:  cpu time      9.1351: real time      9.1351
    SETDIJ:  cpu time      0.0018: real time      0.0018
     EDDAV:  cpu time      4.8704: real time      4.8704
       DOS:  cpu time      0.0001: real time      0.0001
    CHARGE:  cpu time      1.1035: real time      1.1035
    MIXING:  cpu time      0.4934: real time      0.4934
    --------------------------------------------
      LOOP:  cpu time     15.6044: real time     15.6044

 eigenvalue-minimisations  :    24
 total energy-change (2. order) :-0.1721903E-03  (-0.1762558E-04)
 number of electron       8.0000000 magnetization 
 augmentation part        0.7295280 magnetization 

 Broyden mixing:
  rms(total) = 0.20130E-02    rms(broyden)= 0.20130E-02
  rms(prec ) = 0.22771E-02
  weight for this iteration     100.00

 eigenvalues of (default mixing * dielectric matrix)
  average eigenvalue GAMMA=   1.4692
  2.4772  1.8189  1.1370  0.9564  0.9564

 Free energy of the ion-electron system (eV)
  ---------------------------------------------------
  alpha Z        PSCENC =         0.02803141
  Ewald energy   TEWEN  =       136.00659171
  -Hartree energ DENC   =      -526.73314754
  -exchange      EXHF   =         0.00000000
  -V(xc)+E(xc)   XCENC  =        34.59044130
  PAW double counting   =       594.89455064     -597.10888522
  entropy T*S    EENTRO =        -0.00000000
  eigenvalues    EBANDS =      -112.97717923
  atomic energy  EATOM  =       457.35320486
  Solvation  Ediel_sol  =         0.00000000
  ---------------------------------------------------
  free energy    TOTEN  =       -13.94639207 eV

  energy without entropy =      -13.94639207  energy(sigma->0) =      -13.94639207


--------------------------------------------------------------------------------------------------------




--------------------------------------- Iteration      2(   7)  ---------------------------------------


    POTLOK:  cpu time      9.1739: real time      9.1739
    SETDIJ:  cpu time      0.0018: real time      0.0018
     EDDAV:  cpu time      4.8954: real time      4.8954
       DOS:  cpu time      0.0001: real time      0.0001
    CHARGE:  cpu time      1.0910: real time      1.0910
    MIXING:  cpu time      0.5127: real time      0.5127
    --------------------------------------------
      LOOP:  cpu time     15.6748: real time     15.6748

 eigenvalue-minimisations  :    24
 total energy-change (2. order) :-0.7388577E-04  (-0.4940170E-05)
 number of electron       8.0000000 magnetization 
 augmentation part        0.7298532 magnetization 

 Broyden mixing:
  rms(total) = 0.44719E-03    rms(broyden)= 0.44718E-03
  rms(prec ) = 0.74178E-03
  weight for this iteration     100.00

 eigenvalues of (default mixing * dielectric matrix)
  average eigenvalue GAMMA=   1.5298
  2.5026  2.1762  1.4874  0.9232  0.9232  1.1661

 Free energy of the ion-electron system (eV)
  ---------------------------------------------------
  alpha Z        PSCENC =         0.02803141
  Ewald energy   TEWEN  =       136.00659171
  -Hartree energ DENC   =      -526.69522814
  -exchange      EXHF   =         0.00000000
  -V(xc)+E(xc)   XCENC  =        34.58811579
  PAW double counting   =       595.16244595     -597.37617094
  entropy T*S    EENTRO =        -0.00000000
  eigenvalues    EBANDS =      -113.01345660
  atomic energy  EATOM  =       457.35320486
  Solvation  Ediel_sol  =         0.00000000
  ---------------------------------------------------
  free energy    TOTEN  =       -13.94646595 eV

  energy without entropy =      -13.94646595  energy(sigma->0) =      -13.94646595


--------------------------------------------------------------------------------------------------------




--------------------------------------- Iteration      2(   8)  ---------------------------------------


    POTLOK:  cpu time      9.2208: real time      9.2208
    SETDIJ:  cpu time      0.0019: real time      0.0018
     EDDAV:  cpu time      4.8750: real time      4.8751
       DOS:  cpu time      0.0001: real time      0.0001
    CHARGE:  cpu time      1.0997: real time      1.0997
    MIXING:  cpu time      0.5413: real time      0.5413
    --------------------------------------------
      LOOP:  cpu time     15.7388: real time     15.7388

 eigenvalue-minimisations  :    24
 total energy-change (2. order) :-0.1295855E-03  (-0.1891487E-05)
 number of electron       8.0000000 magnetization 
 augmentation part        0.7299805 magnetization 

 Broyden mixing:
  rms(total) = 0.58520E-03    rms(broyden)= 0.58520E-03
  rms(prec ) = 0.72625E-03
  weight for this iteration     100.00

 eigenvalues of (default mixing * dielectric matrix)
  average eigenvalue GAMMA=   1.6089
  3.0323  2.3958  1.8403  1.0000  1.0000  0.9971  0.9971

 Free energy of the ion-electron system (eV)
  ---------------------------------------------------
  alpha Z        PSCENC =         0.02803141
  Ewald energy   TEWEN  =       136.00659171
  -Hartree energ DENC   =      -526.68101390
  -exchange      EXHF   =         0.00000000
  -V(xc)+E(xc)   XCENC  =        34.58686974
  PAW double counting   =       595.12576780     -597.33903975
  entropy T*S    EENTRO =        -0.00000000
  eigenvalues    EBANDS =      -113.02700741
  atomic energy  EATOM  =       457.35320486
  Solvation  Ediel_sol  =         0.00000000
  ---------------------------------------------------
  free energy    TOTEN  =       -13.94659554 eV

  energy without entropy =      -13.94659554  energy(sigma->0) =      -13.94659554


--------------------------------------------------------------------------------------------------------




--------------------------------------- Iteration      2(   9)  ---------------------------------------


    POTLOK:  cpu time      9.2682: real time      9.2682
    SETDIJ:  cpu time      0.0019: real time      0.0019
     EDDAV:  cpu time      4.8742: real time      4.8742
       DOS:  cpu time      0.0001: real time      0.0001
    CHARGE:  cpu time      1.0998: real time      1.0998
    MIXING:  cpu time      0.5703: real time      0.5703
    --------------------------------------------
      LOOP:  cpu time     15.8144: real time     15.8145

 eigenvalue-minimisations  :    24
 total energy-change (2. order) :-0.9703246E-04  (-0.1311664E-05)
 number of electron       8.0000000 magnetization 
 augmentation part        0.7298831 magnetization 

 Broyden mixing:
  rms(total) = 0.16903E-03    rms(broyden)= 0.16903E-03
  rms(prec ) = 0.28819E-03
  weight for this iteration     100.00

 eigenvalues of (default mixing * dielectric matrix)
  average eigenvalue GAMMA=   1.8349
  4.3384  2.5284  2.0568  1.8497  0.9826  0.9826  1.0251  0.9156

 Free energy of the ion-electron system (eV)
  ---------------------------------------------------
  alpha Z        PSCENC =         0.02803141
  Ewald energy   TEWEN  =       136.00659171
  -Hartree energ DENC   =      -526.70329030
  -exchange      EXHF   =         0.00000000
  -V(xc)+E(xc)   XCENC  =        34.58775516
  PAW double counting   =       595.14975873     -597.36324668
  entropy T*S    EENTRO =        -0.00000000
  eigenvalues    EBANDS =      -113.00549746
  atomic energy  EATOM  =       457.35320486
  Solvation  Ediel_sol  =         0.00000000
  ---------------------------------------------------
  free energy    TOTEN  =       -13.94669257 eV

  energy without entropy =      -13.94669257  energy(sigma->0) =      -13.94669257


--------------------------------------------------------------------------------------------------------




--------------------------------------- Iteration      2(  10)  ---------------------------------------


    POTLOK:  cpu time      9.3371: real time      9.3371
    SETDIJ:  cpu time      0.0018: real time      0.0018
     EDDAV:  cpu time      4.8765: real time      4.8766
       DOS:  cpu time      0.0001: real time      0.0001
    CHARGE:  cpu time      1.1027: real time      1.1027
    MIXING:  cpu time      0.5954: real time      0.5954
    --------------------------------------------
      LOOP:  cpu time     15.9136: real time     15.9136

 eigenvalue-minimisations  :    24
 total energy-change (2. order) :-0.8199312E-04  (-0.8659085E-06)
 number of electron       8.0000000 magnetization 
 augmentation part        0.7298797 magnetization 

 Broyden mixing:
  rms(total) = 0.12894E-03    rms(broyden)= 0.12894E-03
  rms(prec ) = 0.17017E-03
  weight for this iteration     100.00

 eigenvalues of (default mixing * dielectric matrix)
  average eigenvalue GAMMA=   1.9877
  5.8284  2.7279  2.3740  1.8811  0.9920  0.9920  1.1308  1.0160  0.9467

 Free energy of the ion-electron system (eV)
  ---------------------------------------------------
  alpha Z        PSCENC =         0.02803141
  Ewald energy   TEWEN  =       136.00659171
  -Hartree energ DENC   =      -526.71155885
  -exchange      EXHF   =         0.00000000
  -V(xc)+E(xc)   XCENC  =        34.58791668
  PAW double counting   =       595.11786846     -597.33134177
  entropy T*S    EENTRO =        -0.00000000
  eigenvalues    EBANDS =      -112.99748706
  atomic energy  EATOM  =       457.35320486
  Solvation  Ediel_sol  =         0.00000000
  ---------------------------------------------------
  free energy    TOTEN  =       -13.94677456 eV

  energy without entropy =      -13.94677456  energy(sigma->0) =      -13.94677456


--------------------------------------------------------------------------------------------------------




--------------------------------------- Iteration      2(  11)  ---------------------------------------


    POTLOK:  cpu time      9.3554: real time      9.3554
    SETDIJ:  cpu time      0.0018: real time      0.0018
     EDDAV:  cpu time      6.1280: real time      6.1281
       DOS:  cpu time      0.0001: real time      0.0001
    CHARGE:  cpu time      1.1017: real time      1.1017
    MIXING:  cpu time      0.6226: real time      0.6226
    --------------------------------------------
      LOOP:  cpu time     17.2097: real time     17.2097

[...]
  -Hartree energ DENC   =      -515.75086937
  -exchange      EXHF   =         0.00000000
  -V(xc)+E(xc)   XCENC  =        34.02814973
  PAW double counting   =       544.72700350     -546.80890734
  entropy T*S    EENTRO =        -0.00000000
  eigenvalues    EBANDS =      -109.68083885
  atomic energy  EATOM  =       457.35320486
  Solvation  Ediel_sol  =         0.00000000
  ---------------------------------------------------
  free energy    TOTEN  =       -14.23341296 eV

  energy without entropy =      -14.23341296  energy(sigma->0) =      -14.23341296


--------------------------------------------------------------------------------------------------------




--------------------------------------- Iteration     13(   2)  ---------------------------------------


    POTLOK:  cpu time      9.3197: real time      9.3197
    SETDIJ:  cpu time      0.0018: real time      0.0018
     EDDAV:  cpu time      6.1632: real time      6.1633
       DOS:  cpu time      0.0001: real time      0.0001
    --------------------------------------------
      LOOP:  cpu time     15.4848: real time     15.4849

 eigenvalue-minimisations  :    32
 total energy-change (2. order) :-0.1319074E-07  (-0.6710952E-09)
 number of electron       8.0000000 magnetization 
 augmentation part        0.6904843 magnetization 

 Free energy of the ion-electron system (eV)
  ---------------------------------------------------
  alpha Z        PSCENC =         0.02803141
  Ewald energy   TEWEN  =       121.87081311
  -Hartree energ DENC   =      -515.75135763
  -exchange      EXHF   =         0.00000000
  -V(xc)+E(xc)   XCENC  =        34.02817745
  PAW double counting   =       544.72695902     -546.80886759
  entropy T*S    EENTRO =        -0.00000000
  eigenvalues    EBANDS =      -109.68037360
  atomic energy  EATOM  =       457.35320486
  Solvation  Ediel_sol  =         0.00000000
  ---------------------------------------------------
  free energy    TOTEN  =       -14.23341297 eV

  energy without entropy =      -14.23341297  energy(sigma->0) =      -14.23341297


--------------------------------------------------------------------------------------------------------




 average (electrostatic) potential at core
  the test charge radii are     0.5201  0.7215
  (the norm of the test charge is              1.0000)
       1 -44.7112       2 -44.7111       3 -80.5687
 
 
 
 E-fermi :  -6.2621     XC(G=0):  -0.0797     alpha+bet : -0.0163

 Fermi energy:        -6.2621495681

 k-point     1 :       0.0000    0.0000    0.0000
  band No.  band energies     occupation 
      1     -25.2922      2.00000
      2     -13.0942      2.00000
      3      -9.2586      2.00000
      4      -7.1953      2.00000
      5      -0.9851      0.00000
      6       0.0339      0.00000
      7       0.2397      0.00000
      8       0.3265      0.00000


--------------------------------------------------------------------------------------------------------


 soft charge-density along one line, spin component           1
         0         1         2         3         4         5         6         7         8         9
 total charge-density along one line
 
 pseudopotential strength for first ion, spin component:           1
 -2.384  -4.117  -0.000   0.003  -0.000
 -4.117  -7.023  -0.000   0.009  -0.000
 -0.000  -0.000  -0.324  -0.000   0.000
  0.003   0.009  -0.000  -0.314  -0.000
 -0.000  -0.000   0.000  -0.000  -0.323
 total augmentation occupancy for first ion, spin component:           1
  3.741  -0.784   0.000  -0.721   0.018
 -0.784   0.216   0.000   0.147  -0.009
  0.000   0.000   0.041   0.000   0.000
 -0.721   0.147   0.000   0.139  -0.005
  0.018  -0.009   0.000  -0.005   0.027


------------------------ aborting loop because EDIFF is reached ----------------------------------------


    CHARGE:  cpu time      1.0969: real time      1.0969
    FORLOC:  cpu time      0.8321: real time      0.8321
    FORNL :  cpu time      0.3531: real time      0.3530
    STRESS:  cpu time      3.7886: real time      3.7887
    FORCOR:  cpu time     10.6300: real time     10.6300
    FORHAR:  cpu time      2.8891: real time      2.8891
    MIXING:  cpu time      0.4196: real time      0.4196
    OFIELD:  cpu time      0.0000: real time      0.0000

  FORCE on cell =-STRESS in cart. coord.  units (eV):
  Direction    XX          YY          ZZ          XY          YZ          ZX
  --------------------------------------------------------------------------------------
  Alpha Z     0.02803     0.02803     0.02803
  Ewald      62.99379   -21.81647    80.69352     0.00364     0.00029    25.42711
  Hartree   175.95561   160.81349   178.98257     0.00025    -0.00015     4.34012
  E(xc)     -36.06524   -36.42720   -36.00017    -0.00000     0.00000     0.09368
  Local    -322.44810  -248.17379  -338.20334    -0.00125    -0.00092   -22.61270
  n-local   -30.70043   -30.80746   -30.43377     0.00052    -0.00042     0.38395
  augment     6.41587     8.15906     6.09882    -0.00001     0.00002    -0.45601
  Kinetic   143.81384   168.22033   138.82889    -0.00151     0.00018    -7.17597
  Fock        0.00000     0.00000     0.00000     0.00000     0.00000     0.00000
  -------------------------------------------------------------------------------------
  Total      -0.00662    -0.00401    -0.00544     0.00000     0.00000     0.00017
  in kB      -0.00133    -0.00080    -0.00109     0.00000     0.00000     0.00003
  external pressure =       -0.00 kB  Pullay stress =        0.00 kB


 VOLUME and BASIS-vectors are now :
 -----------------------------------------------------------------------------
  energy-cutoff  :     1000.00
  volume of cell :     8000.00
      direct lattice vectors                 reciprocal lattice vectors
    20.000000000  0.000000000  0.000000000     0.050000000  0.000000000  0.000000000
     0.000000000 20.000000000  0.000000000     0.000000000  0.050000000  0.000000000
     0.000000000  0.000000000 20.000000000     0.000000000  0.000000000  0.050000000

  length of vectors
    20.000000000 20.000000000 20.000000000     0.050000000  0.050000000  0.050000000


 FORCES acting on ions
    electron-ion (+dipol)            ewald-force                    non-local-force                 convergence-correction
 -----------------------------------------------------------------------------------------------
   0.137E+00 -.855E-02 -.880E+02   -.185E+00 -.822E-03 0.963E+02   0.489E-01 -.271E-19 -.832E+01   0.328E-05 -.217E-09 0.107E-04
   0.832E+02 -.455E-02 0.287E+02   -.911E+02 -.388E-02 -.314E+02   0.788E+01 0.000E+00 0.268E+01   -.159E-04 -.116E-08 -.165E-04
   -.513E+02 -.117E+00 0.365E+02   0.912E+02 0.471E-02 -.649E+02   -.400E+02 0.000E+00 0.284E+02   0.609E-04 0.168E-07 -.890E-04
 -----------------------------------------------------------------------------------------------
   0.321E+02 -.130E+00 -.228E+02   0.000E+00 -.520E-17 0.000E+00   -.321E+02 -.271E-19 0.228E+02   0.483E-04 0.154E-07 -.948E-04
 
 
 POSITION                                       TOTAL-FORCE (eV/Angst)
 -----------------------------------------------------------------------------------
      5.09117      0.00007      1.41861         0.000672     -0.000000     -0.000493
      4.20047      0.00004      0.16634         0.000981     -0.000000     -0.000299
      5.13062      0.00008      0.44766        -0.001653      0.000000      0.000792
 -----------------------------------------------------------------------------------
    total drift:                                0.000021     -0.130277     -0.000003


--------------------------------------------------------------------------------------------------------



  FREE ENERGIE OF THE ION-ELECTRON SYSTEM (eV)
  ---------------------------------------------------
  free  energy   TOTEN  =       -14.23341297 eV

  energy  without entropy=      -14.23341297  energy(sigma->0) =      -14.23341297
 
 d Force = 0.5930663E-08[ 0.132E-08, 0.105E-07]  d Energy = 0.3854529E-07-0.326E-07
 d Force =-0.1816882E-02[-0.182E-02,-0.182E-02]  d Ewald  =-0.1816882E-02 0.174E-10


--------------------------------------------------------------------------------------------------------


    POTLOK:  cpu time      9.3135: real time      9.3135


--------------------------------------------------------------------------------------------------------




--------------------------------------------------------------------------------------------------------


    WAVPRE:  cpu time      3.2476: real time      3.2476
    FEWALD:  cpu time      0.0001: real time      0.0001
    ORTHCH:  cpu time      0.1446: real time      0.1446
     LOOP+:  cpu time     62.7062: real time     62.7065


--------------------------------------- Ionic step       14  -------------------------------------------




--------------------------------------- Iteration     14(   1)  ---------------------------------------


    POTLOK:  cpu time      9.3186: real time      9.3187
    SETDIJ:  cpu time      0.0018: real time      0.0018
     EDDAV:  cpu time      3.6496: real time      3.6496
       DOS:  cpu time      0.0001: real time      0.0001
    CHARGE:  cpu time      1.1053: real time      1.1053
    MIXING:  cpu time      0.4014: real time      0.4014
    --------------------------------------------
      LOOP:  cpu time     14.4768: real time     14.4769

 eigenvalue-minimisations  :    16
 total energy-change (2. order) :-0.7809865E-07  (-0.9778991E-06)
 number of electron       8.0000000 magnetization 
 augmentation part        0.6905004 magnetization 

 Broyden mixing:
  rms(total) = 0.78488E-04    rms(broyden)= 0.78481E-04
  rms(prec ) = 0.81904E-04
  weight for this iteration     100.00

 Free energy of the ion-electron system (eV)
  ---------------------------------------------------
  alpha Z        PSCENC =         0.02803141
  Ewald energy   TEWEN  =       121.87317759
  -Hartree energ DENC   =      -515.75215211
  -exchange      EXHF   =         0.00000000
  -V(xc)+E(xc)   XCENC  =        34.02820124
  PAW double counting   =       544.72663719     -546.80854717
  entropy T*S    EENTRO =        -0.00000000
  eigenvalues    EBANDS =      -109.68196604
  atomic energy  EATOM  =       457.35320486
  Solvation  Ediel_sol  =         0.00000000
  ---------------------------------------------------
  free energy    TOTEN  =       -14.23341303 eV

  energy without entropy =      -14.23341303  energy(sigma->0) =      -14.23341303


--------------------------------------------------------------------------------------------------------




--------------------------------------- Iteration     14(   2)  ---------------------------------------


    POTLOK:  cpu time      9.3176: real time      9.3177
    SETDIJ:  cpu time      0.0019: real time      0.0019
     EDDAV:  cpu time      4.9089: real time      4.9089
       DOS:  cpu time      0.0001: real time      0.0001
    --------------------------------------------
      LOOP:  cpu time     14.2283: real time     14.2285

 eigenvalue-minimisations  :    24
 total energy-change (2. order) :-0.1182332E-07  (-0.1607028E-07)
 number of electron       8.0000000 magnetization 
 augmentation part        0.6905004 magnetization 

 Free energy of the ion-electron system (eV)
  ---------------------------------------------------
  alpha Z        PSCENC =         0.02803141
  Ewald energy   TEWEN  =       121.87317759
  -Hartree energ DENC   =      -515.75349019
  -exchange      EXHF   =         0.00000000
  -V(xc)+E(xc)   XCENC  =        34.02827939
  PAW double counting   =       544.73114538     -546.81308199
  entropy T*S    EENTRO =        -0.00000000
  eigenvalues    EBANDS =      -109.68067950
  atomic energy  EATOM  =       457.35320486
  Solvation  Ediel_sol  =         0.00000000
  ---------------------------------------------------
  free energy    TOTEN  =       -14.23341305 eV

  energy without entropy =      -14.23341305  energy(sigma->0) =      -14.23341305


--------------------------------------------------------------------------------------------------------




 average (electrostatic) potential at core
  the test charge radii are     0.5201  0.7215
  (the norm of the test charge is              1.0000)
       1 -44.7113       2 -44.7115       3 -80.5686
 
 
 
 E-fermi :  -6.2619     XC(G=0):  -0.0791     alpha+bet : -0.0163

 Fermi energy:        -6.2618643597

 k-point     1 :       0.0000    0.0000    0.0000
  band No.  band energies     occupation 
      1     -25.2922      2.00000
      2     -13.0947      2.00000
      3      -9.2581      2.00000
      4      -7.1952      2.00000
      5      -0.9851      0.00000
      6       0.0346      0.00000
      7       0.2397      0.00000
      8       0.3269      0.00000


--------------------------------------------------------------------------------------------------------


 soft charge-density along one line, spin component           1
         0         1         2         3         4         5         6         7         8         9
 total charge-density along one line
 
 pseudopotential strength for first ion, spin component:           1
 -2.384  -4.117  -0.000   0.003  -0.000
 -4.117  -7.023  -0.000   0.009  -0.000
 -0.000  -0.000  -0.324  -0.000   0.000
  0.003   0.009  -0.000  -0.314  -0.000
 -0.000  -0.000   0.000  -0.000  -0.323
 total augmentation occupancy for first ion, spin component:           1
  3.741  -0.785   0.000  -0.721   0.018
 -0.785   0.216   0.000   0.147  -0.009
  0.000   0.000   0.041   0.000   0.000
 -0.721   0.147   0.000   0.139  -0.005
  0.018  -0.009   0.000  -0.005   0.027


------------------------ aborting loop because EDIFF is reached ----------------------------------------


    CHARGE:  cpu time      1.0950: real time      1.0950
    FORLOC:  cpu time      0.8318: real time      0.8318
    FORNL :  cpu time      0.3532: real time      0.3532
    STRESS:  cpu time      3.7935: real time      3.7935
    FORCOR:  cpu time     10.6249: real time     10.6250
    FORHAR:  cpu time      2.8910: real time      2.8910
    MIXING:  cpu time      0.4186: real time      0.4186
    OFIELD:  cpu time      0.0000: real time      0.0000

  FORCE on cell =-STRESS in cart. coord.  units (eV):
  Direction    XX          YY          ZZ          XY          YZ          ZX
  --------------------------------------------------------------------------------------
  Alpha Z     0.02803     0.02803     0.02803
  Ewald      62.99178   -21.81647    80.69789     0.00364     0.00029    25.43921
  Hartree   175.95529   160.81404   178.98384     0.00025    -0.00015     4.34238
  E(xc)     -36.06537   -36.42731   -36.00025    -0.00000     0.00000     0.09374
  Local    -322.44607  -248.17447  -338.20807    -0.00125    -0.00092   -22.62389
  n-local   -30.70083   -30.80768   -30.43414     0.00052    -0.00042     0.38373
  augment     6.41598     8.15910     6.09884    -0.00001     0.00002    -0.45619
  Kinetic   143.81527   168.22047   138.82817    -0.00151     0.00018    -7.17913
  Fock        0.00000     0.00000     0.00000     0.00000     0.00000     0.00000
  -------------------------------------------------------------------------------------
  Total      -0.00592    -0.00428    -0.00570     0.00000     0.00000    -0.00014
  in kB      -0.00119    -0.00086    -0.00114     0.00000     0.00000    -0.00003
  external pressure =       -0.00 kB  Pullay stress =        0.00 kB


 VOLUME and BASIS-vectors are now :
 -----------------------------------------------------------------------------
  energy-cutoff  :     1000.00
  volume of cell :     8000.00
      direct lattice vectors                 reciprocal lattice vectors
    20.000000000  0.000000000  0.000000000     0.050000000  0.000000000  0.000000000
     0.000000000 20.000000000  0.000000000     0.000000000  0.050000000  0.000000000
     0.000000000  0.000000000 20.000000000     0.000000000  0.000000000  0.050000000

  length of vectors
    20.000000000 20.000000000 20.000000000     0.050000000  0.050000000  0.050000000


 FORCES acting on ions
    electron-ion (+dipol)            ewald-force                    non-local-force                 convergence-correction
 -----------------------------------------------------------------------------------------------
   0.130E+00 -.855E-02 -.880E+02   -.178E+00 -.822E-03 0.963E+02   0.481E-01 -.678E-20 -.832E+01   0.102E-03 0.310E-07 -.746E-04
   0.832E+02 -.455E-02 0.288E+02   -.911E+02 -.388E-02 -.314E+02   0.788E+01 0.136E-19 0.269E+01   0.793E-04 0.516E-07 -.589E-04
   -.513E+02 -.117E+00 0.365E+02   0.912E+02 0.471E-02 -.649E+02   -.400E+02 0.434E-18 0.284E+02   0.171E-02 -.199E-06 -.571E-03
 -----------------------------------------------------------------------------------------------
   0.320E+02 -.130E+00 -.228E+02   0.000E+00 -.520E-17 0.000E+00   -.321E+02 0.440E-18 0.228E+02   0.189E-02 -.117E-06 -.705E-03
 
 
 POSITION                                       TOTAL-FORCE (eV/Angst)
 -----------------------------------------------------------------------------------
      5.09121      0.00007      1.41863         0.000121     -0.000000     -0.000407
      4.20047      0.00004      0.16631        -0.000020     -0.000000     -0.000015
      5.13058      0.00008      0.44767        -0.000101      0.000000      0.000422
 -----------------------------------------------------------------------------------
    total drift:                               -0.000106     -0.130278      0.000061


--------------------------------------------------------------------------------------------------------



  FREE ENERGIE OF THE ION-ELECTRON SYSTEM (eV)
  ---------------------------------------------------
  free  energy   TOTEN  =       -14.23341305 eV

  energy  without entropy=      -14.23341305  energy(sigma->0) =      -14.23341305
 
 d Force = 0.5979918E-07[ 0.108E-07, 0.109E-06]  d Energy = 0.7673123E-07-0.169E-07
 d Force =-0.2364483E-02[-0.236E-02,-0.236E-02]  d Ewald  =-0.2364483E-02-0.216E-10


--------------------------------------------------------------------------------------------------------


    POTLOK:  cpu time      9.3005: real time      9.3006


--------------------------------------------------------------------------------------------------------


 Conjugate gradient step on ions:
 trial-energy change:   -0.000000  1 .order   -0.000000   -0.000000   -0.000000
  (g-gl).g = 0.255E-06      g.g   = 0.246E-06  gl.gl    = 0.275E-06
 g(Force)  = 0.246E-06   g(Stress)= 0.000E+00 ortho     =-0.840E-08
 gamma     =   0.92618
 trial     =   0.45592
 opt step  =   0.50621  (harmonic =   0.50621) maximal distance =0.00004093
 next E    =   -14.233413   (d E  =  -0.00000)


--------------------------------------------------------------------------------------------------------


  
 reached required accuracy - stopping structural energy minimisation
 writing wavefunctions
     LOOP+:  cpu time     58.1408: real time     58.1412
    4ORBIT:  cpu time      0.0000: real time      0.0000

 total amount of memory used by VASP MPI-rank0  3333536. kBytes
=======================================================================

   base      :      30000. kBytes
   nonl-proj :     101082. kBytes
   fftplans  :    1121480. kBytes
   grid      :    2007449. kBytes
   one-center:          9. kBytes
   wavefun   :      73516. kBytes
 
  
  
 General timing and accounting informations for this job:
 ========================================================
  
                  Total CPU time used (sec):     2027.053
                            User time (sec):     1904.685
                          System time (sec):      122.368
                         Elapsed time (sec):     2027.497
  
                   Maximum memory used (kb):     5270900.
                   Average memory used (kb):          N/A
  
                          Minor page faults:    119382762
                          Major page faults:            2
                 Voluntary context switches:          551
