 vasp.6.4.1 05Apr23 (build Jun 06 2023 10:26:43) complex                        
  
 executed on             LinuxIFC date 2023.06.30  11:49:12
 running    1 mpi-ranks, on    1 nodes
 distrk:  each k-point on    1 cores,    1 groups
 distr:  one band on NCORE=   1 cores,    1 groups


--------------------------------------------------------------------------------------------------------


 INCAR:
   SYSTEM = BN
   GGA = PE
   ISMEAR = 0
   EDIFF = 1.0E-6
   EDIFFG = -1.0E-3
   KPAR = 1
   NCSHMEM = -1
   PREC = Normal
   NCORE = 4
   IBRION = 2
   POTIM = 0.5
   NSW = 101
   ENCUT = 1100

 POTCAR:    PAW_PBE H 15Jun2001                   
 POTCAR:    PAW_PBE O 08Apr2002                   
 -----------------------------------------------------------------------------
|                                                                             |
|           W    W    AA    RRRRR   N    N  II  N    N   GGGG   !!!           |
|           W    W   A  A   R    R  NN   N  II  NN   N  G    G  !!!           |
|           W    W  A    A  R    R  N N  N  II  N N  N  G       !!!           |
|           W WW W  AAAAAA  RRRRR   N  N N  II  N  N N  G  GGG   !            |
|           WW  WW  A    A  R   R   N   NN  II  N   NN  G    G                |
|           W    W  A    A  R    R  N    N  II  N    N   GGGG   !!!           |
|                                                                             |
|     The value NCORE = 4 specified in the INCAR file was overwritten,        |
|     because it was not compatible with the 1 processes available:           |
|     NCORE = 1                                                               |
|     was used instead, please check that this makes sense for your           |
|     machine.                                                                |
|                                                                             |
 -----------------------------------------------------------------------------

 POTCAR:    PAW_PBE H 15Jun2001                   
   VRHFIN =H: ultrasoft test                                                                        
   LEXCH  = PE                                                                                      
   EATOM  =    12.4884 eV,    0.9179 Ry                                                             
                                                                                                    
   TITEL  = PAW_PBE H 15Jun2001                                                                     
   LULTRA =        F    use ultrasoft PP ?                                                          
   IUNSCR =        0    unscreen: 0-lin 1-nonlin 2-no                                               
   RPACOR =    0.000    partial core radius                                                         
   POMASS =    1.000; ZVAL   =    1.000    mass and valenz                                          
   RCORE  =    1.100    outmost cutoff radius                                                       
   RWIGS  =    0.700; RWIGS  =    0.370    wigner-seitz radius (au A)                               
   ENMAX  =  250.000; ENMIN  =  200.000 eV                                                          
   RCLOC  =    0.701    cutoff for local pot                                                        
   LCOR   =        T    correct aug charges                                                         
   LPAW   =        T    paw PP                                                                      
   EAUG   =  400.000                                                                                
   RMAX   =    1.123    core radius for proj-oper                                                   
   RAUG   =    1.200    factor for augmentation sphere                                              
   RDEP   =    1.112    radius for radial grids                                                     
   RDEPT  =    0.926    core radius for aug-charge                                                  
                                                                                                    
   Atomic configuration                                                                             
    2 entries                                                                                       
     n  l   j            E        occ.                                                              
     1  0  0.50        -6.4927   1.0000                                                             
     2  1  0.50        -3.4015   0.0000                                                             
   Description                                                                                      
     l       E           TYP  RCUT    TYP  RCUT                                                     
     0     -6.4927494     23  1.100                                                                 
     0      6.8029130     23  1.100                                                                 
     1     -4.0817478     23  1.100                                                                 
  local pseudopotential read in
  atomic valenz-charges read in
  non local Contribution for L=           0  read in
    real space projection operators read in
  non local Contribution for L=           0  read in
    real space projection operators read in
  non local Contribution for L=           1  read in
    real space projection operators read in
    PAW grid and wavefunctions read in
 
   number of l-projection  operators is LMAX  =           3
   number of lm-projection operators is LMMAX =           5
 
 POTCAR:    PAW_PBE O 08Apr2002                   
   VRHFIN =O: s2p4                                                                                  
   LEXCH  = PE                                                                                      
   EATOM  =   432.3788 eV,   31.7789 Ry                                                             
                                                                                                    
   TITEL  = PAW_PBE O 08Apr2002                                                                     
   LULTRA =        F    use ultrasoft PP ?                                                          
   IUNSCR =        1    unscreen: 0-lin 1-nonlin 2-no                                               
   RPACOR =    1.200    partial core radius                                                         
   POMASS =   16.000; ZVAL   =    6.000    mass and valenz                                          
   RCORE  =    1.520    outmost cutoff radius                                                       
   RWIGS  =    1.550; RWIGS  =    0.820    wigner-seitz radius (au A)                               
   ENMAX  =  400.000; ENMIN  =  300.000 eV                                                          
   ICORE  =        2    local potential                                                             
   LCOR   =        T    correct aug charges                                                         
   LPAW   =        T    paw PP                                                                      
   EAUG   =  605.392                                                                                
   DEXC   =    0.000                                                                                
   RMAX   =    1.553    core radius for proj-oper                                                   
   RAUG   =    1.300    factor for augmentation sphere                                              
   RDEP   =    1.550    radius for radial grids                                                     
   RDEPT  =    1.329    core radius for aug-charge                                                  
                                                                                                    
   Atomic configuration                                                                             
    4 entries                                                                                       
     n  l   j            E        occ.                                                              
     1  0  0.50      -514.6923   2.0000                                                             
     2  0  0.50       -23.9615   2.0000                                                             
     2  1  0.50        -9.0305   4.0000                                                             
     3  2  1.50        -9.5241   0.0000                                                             
   Description                                                                                      
     l       E           TYP  RCUT    TYP  RCUT                                                     
     0    -23.9615318     23  1.200                                                                 
     0     -9.5240782     23  1.200                                                                 
     1     -9.0304911     23  1.520                                                                 
     1      8.1634956     23  1.520                                                                 
     2     -9.5240782      7  1.500                                                                 
  local pseudopotential read in
  partial core-charges read in
  partial kinetic energy density read in
  kinetic energy density of atom read in
  atomic valenz-charges read in
  non local Contribution for L=           0  read in
    real space projection operators read in
  non local Contribution for L=           0  read in
    real space projection operators read in
  non local Contribution for L=           1  read in
    real space projection operators read in
  non local Contribution for L=           1  read in
    real space projection operators read in
    PAW grid and wavefunctions read in
 
   number of l-projection  operators is LMAX  =           4
   number of lm-projection operators is LMMAX =           8
 
  PAW_PBE H 15Jun2001                   :
 energy of atom  1       EATOM=  -12.4884
 kinetic energy error for atom=    0.0001 (will be added to EATOM!!)
  PAW_PBE O 08Apr2002                   :
 energy of atom  2       EATOM= -432.3788
 kinetic energy error for atom=    0.0016 (will be added to EATOM!!)
 
 
 POSCAR: Water molecule
  positions in cartesian coordinates
  No initial velocities read in
 exchange correlation table for  LEXCH =        8
   RHO(1)=    0.500       N(1)  =     2000
   RHO(2)=  100.500       N(2)  =     4000
 


--------------------------------------------------------------------------------------------------------


 ion  position               nearest neighbor table
   1  0.255  0.000  0.072-   3 1.00
   2  0.209  0.000  0.007-   3 1.00
   3  0.257  0.000  0.022-   1 1.00   2 1.00
 
  LATTYP: Found a simple cubic cell.
 ALAT       =    20.0000000000
  
  Lattice vectors:
  
 A1 = (  20.0000000000,   0.0000000000,   0.0000000000)
 A2 = (   0.0000000000,  20.0000000000,   0.0000000000)
 A3 = (   0.0000000000,   0.0000000000,  20.0000000000)


Analysis of symmetry for initial positions (statically):
=====================================================================
 Subroutine PRICEL returns:
 Original cell was already a primitive cell.
 

 Routine SETGRP: Setting up the symmetry group for a 
 simple cubic supercell.


 Subroutine GETGRP returns: Found  2 space group operations
 (whereof  2 operations were pure point group operations)
 out of a pool of 48 trial point group operations.


The static configuration has the point symmetry C_1h.


Analysis of symmetry for dynamics (positions and initial velocities):
=====================================================================
 Subroutine PRICEL returns:
 Original cell was already a primitive cell.
 

 Routine SETGRP: Setting up the symmetry group for a 
 simple cubic supercell.


 Subroutine GETGRP returns: Found  2 space group operations
 (whereof  2 operations were pure point group operations)
 out of a pool of 48 trial point group operations.


The dynamic configuration has the point symmetry C_1h.


 Subroutine INISYM returns: Found  2 space group operations
 (whereof  2 operations are pure point group operations),
 and found     1 'primitive' translations


----------------------------------------------------------------------------------------

                                     Primitive cell                                     

  volume of cell :    8000.0000

  direct lattice vectors                    reciprocal lattice vectors
    20.000000000  0.000000000  0.000000000     0.050000000  0.000000000  0.000000000
     0.000000000 20.000000000  0.000000000     0.000000000  0.050000000  0.000000000
     0.000000000  0.000000000 20.000000000     0.000000000  0.000000000  0.050000000

  length of vectors
    20.000000000 20.000000000 20.000000000     0.050000000  0.050000000  0.050000000

  position of ions in fractional coordinates (direct lattice)
     0.255395500  0.000003500  0.072266000
     0.209022500  0.000002000  0.007084000
     0.256695000  0.000004000  0.022280500

  ion indices of the primitive-cell ions
   primitive index   ion index
                 1           1
                 2           2
                 3           3

----------------------------------------------------------------------------------------

 
 
 KPOINTS: Automatically generated mesh            

Automatic generation of k-mesh.
 Grid dimensions read from file:
 generate k-points for:    1    1    1

 Generating k-lattice:

  Cartesian coordinates                     Fractional coordinates (reciprocal lattice)
     0.050000000  0.000000000  0.000000000     1.000000000  0.000000000  0.000000000
     0.000000000  0.050000000  0.000000000     0.000000000  1.000000000  0.000000000
     0.000000000  0.000000000  0.050000000     0.000000000  0.000000000  1.000000000

  Length of vectors
     0.050000000  0.050000000  0.050000000

  Shift w.r.t. Gamma in fractional coordinates (k-lattice)
     0.000000000  0.000000000  0.000000000

 
 Subroutine IBZKPT returns following result:
 ===========================================
 
 Found      1 irreducible k-points:
 
 Following reciprocal coordinates:
            Coordinates               Weight
  0.000000  0.000000  0.000000      1.000000
 
 Following cartesian coordinates:
            Coordinates               Weight
  0.000000  0.000000  0.000000      1.000000
 


--------------------------------------------------------------------------------------------------------




 Dimension of arrays:
   k-points           NKPTS =      1   k-points in BZ     NKDIM =      1   number of bands    NBANDS=      8
   number of dos      NEDOS =    301   number of ions     NIONS =      3
   non local maximal  LDIM  =      4   non local SUM 2l+1 LMDIM =      8
   total plane-waves  NPLWV = ******
   max r-space proj   IRMAX =      1   max aug-charges    IRDMAX=   7094
   dimension x,y,z NGX =   162 NGY =  162 NGZ =  162
   dimension x,y,z NGXF=   324 NGYF=  324 NGZF=  324
   support grid    NGXF=   324 NGYF=  324 NGZF=  324
   ions per type =               2   1
   NGX,Y,Z   is equivalent  to a cutoff of  13.47, 13.47, 13.47 a.u.
   NGXF,Y,Z  is equivalent  to a cutoff of  26.93, 26.93, 26.93 a.u.

 SYSTEM =  BN                                      
 POSCAR =  Water molecule                          

 Startparameter for this run:
   NWRITE =      2    write-flag & timer
   PREC   = normal    normal or accurate (medium, high low for compatibility)
   ISTART =      1    job   : 0-new  1-cont  2-samecut
   ICHARG =      0    charge: 1-file 2-atom 10-const
   ISPIN  =      1    spin polarized calculation?
   LNONCOLLINEAR =      F non collinear calculations
   LSORBIT =      F    spin-orbit coupling
   INIWAV =      1    electr: 0-lowe 1-rand  2-diag
   LASPH  =      F    aspherical Exc in radial PAW
 Electronic Relaxation 1
   ENCUT  = 1100.0 eV  80.85 Ry    8.99 a.u.  54.09 54.09 54.09*2*pi/ulx,y,z
   ENINI  = 1100.0     initial cutoff
   ENAUG  =  605.4 eV  augmentation charge cutoff
   NELM   =     60;   NELMIN=  2; NELMDL=  0     # of ELM steps 
   EDIFF  = 0.1E-05   stopping-criterion for ELM
   LREAL  =      F    real-space projection
   NLSPLINE    = F    spline interpolate recip. space projectors
   LCOMPAT=      F    compatible to vasp.4.4
   GGA_COMPAT  = T    GGA compatible to vasp.4.4-vasp.4.6
   LMAXPAW     = -100 max onsite density
   LMAXMIX     =    2 max onsite mixed and CHGCAR
   VOSKOWN=      0    Vosko Wilk Nusair interpolation
   ROPT   =    0.00000   0.00000
 Ionic relaxation
   EDIFFG = -.1E-02   stopping-criterion for IOM
   NSW    =    101    number of steps for IOM
   NBLOCK =      1;   KBLOCK =    101    inner block; outer block 
   IBRION =      2    ionic relax: 0-MD 1-quasi-New 2-CG
   NFREE  =      1    steps in history (QN), initial steepest desc. (CG)
   ISIF   =      2    stress and relaxation
   IWAVPR =     11    prediction:  0-non 1-charg 2-wave 3-comb
   ISYM   =      2    0-nonsym 1-usesym 2-fastsym
   LCORR  =      T    Harris-Foulkes like correction to forces

   POTIM  = 0.5000    time-step for ionic-motion
   TEIN   =    0.0    initial temperature
   TEBEG  =    0.0;   TEEND  =   0.0 temperature during run
   SMASS  =  -3.00    Nose mass-parameter (am)
   estimated Nose-frequenzy (Omega)   =  0.10E-29 period in steps = 0.13E+47 mass=  -0.914E-26a.u.
   SCALEE = 1.0000    scale energy and forces
   NPACO  =    256;   APACO  = 10.0  distance and # of slots for P.C.
   PSTRESS=    0.0 pullay stress

  Mass of Ions in am
   POMASS =   1.00 16.00
  Ionic Valenz
   ZVAL   =   1.00  6.00
  Atomic Wigner-Seitz radii
   RWIGS  =  -1.00 -1.00
  virtual crystal weights 
   VCA    =   1.00  1.00
   NELECT =       8.0000    total number of electrons
   NUPDOWN=      -1.0000    fix difference up-down

 DOS related values:
   EMIN   =  10.00;   EMAX   =-10.00  energy-range for DOS
   EFERMI =   0.00;   METHOD = LEGACY      
   ISMEAR =     0;   SIGMA  =   0.20  broadening in eV -4-tet -1-fermi 0-gaus

 Electronic relaxation 2 (details)
   IALGO  =     38    algorithm
   LDIAG  =      T    sub-space diagonalisation (order eigenvalues)
   LSUBROT=      F    optimize rotation matrix (better conditioning)
   TURBO    =      0    0=normal 1=particle mesh
   IRESTART =      0    0=no restart 2=restart with 2 vectors
   NREBOOT  =      0    no. of reboots
   NMIN     =      0    reboot dimension
   EREF     =   0.00    reference energy to select bands
   IMIX   =      4    mixing-type and parameters
     AMIX     =   0.40;   BMIX     =  1.00
     AMIX_MAG =   1.60;   BMIX_MAG =  1.00
     AMIN     =   0.10
     WC   =   100.;   INIMIX=   1;  MIXPRE=   1;  MAXMIX= -45

 Intra band minimization:
   WEIMIN = 0.0010     energy-eigenvalue tresh-hold
   EBREAK =  0.31E-07  absolut break condition
   DEPER  =   0.30     relativ break condition  

   TIME   =   0.40     timestep for ELM

  volume/ion in A,a.u.               =    2666.67     17995.55
  Fermi-wavevector in a.u.,A,eV,Ry     =   0.163710  0.309367  0.364649  0.026801
  Thomas-Fermi vector in A             =   0.862763
 
 Write flags
   LWAVE        =      T    write WAVECAR
   LDOWNSAMPLE  =      F    k-point downsampling of WAVECAR
   LCHARG       =      T    write CHGCAR
   LVTOT        =      F    write LOCPOT, total local potential
   LVHAR        =      F    write LOCPOT, Hartree potential only
   LELF         =      F    write electronic localiz. function (ELF)
   LORBIT       =      0    0 simple, 1 ext, 2 COOP (PROOUT), +10 PAW based schemes


 Dipole corrections
   LMONO  =      F    monopole corrections only (constant potential shift)
   LDIPOL =      F    correct potential (dipole corrections)
   IDIPOL =      0    1-x, 2-y, 3-z, 4-all directions 
   EPSILON=  1.0000000 bulk dielectric constant

 Exchange correlation treatment:
   GGA     =    PE    GGA type
   LEXCH   =     8    internal setting for exchange type
   LIBXC   =     F    Libxc                    
   VOSKOWN =     0    Vosko Wilk Nusair interpolation
   LHFCALC =     F    Hartree Fock is set to
   LHFONE  =     F    Hartree Fock one center treatment
   AEXX    =    0.0000 exact exchange contribution

 Linear response parameters
   LEPSILON=     F    determine dielectric tensor
   LRPA    =     F    only Hartree local field effects (RPA)
   LNABLA  =     F    use nabla operator in PAW spheres
   LVEL    =     F    velocity operator in full k-point grid
   CSHIFT  =0.1000    complex shift for real part using Kramers Kronig
   OMEGAMAX=  -1.0    maximum frequency
   DEG_THRESHOLD= 0.2000000E-02 threshold for treating states as degnerate
   RTIME   =   -0.100 relaxation time in fs
  (WPLASMAI=    0.000 imaginary part of plasma frequency in eV, 0.658/RTIME)
   DFIELD  = 0.0000000 0.0000000 0.0000000 field for delta impulse in time
 
  Optional k-point grid parameters
   LKPOINTS_OPT  =     F    use optional k-point grid
   KPOINTS_OPT_MODE=     1    mode for optional k-point grid
 
 Orbital magnetization related:
   ORBITALMAG=     F  switch on orbital magnetization
   LCHIMAG   =     F  perturbation theory with respect to B field
   DQ        =  0.001000  dq finite difference perturbation B field
   LLRAUG    =     F  two centre corrections for induced B field
   LBONE     =     F  B-component reconstruction in AE one-centre
   LVGVCALC  =     T  calculate vGv susceptibility
   LVGVAPPL  =     F  apply vGv susceptibility instead of pGv for G=0

 Random number generation:
   RANDOM_GENERATOR = DEFAULT
   PCG_SEED         = not used


--------------------------------------------------------------------------------------------------------


 conjugate gradient relaxation of ions
 charge density and potential will be updated during run
 non-spin polarized calculation
 Variant of blocked Davidson
 Davidson routine will perform the subspace rotation
 perform sub-space diagonalisation
    after iterative eigenvector-optimisation
 modified Broyden-mixing scheme, WC =      100.0
 initial mixing is a Kerker type mixing with AMIX =  0.4000 and BMIX =      1.0000
 Hartree-type preconditioning will be used
 using additional bands            4
 reciprocal scheme for non local part
 use partial core corrections
 calculate Harris-corrections to forces 
   (improved forces if not selfconsistent)
 use gradient corrections 
 use of overlap-Matrix (Vanderbilt PP)
 Gauss-broadening in eV      SIGMA  =   0.20


--------------------------------------------------------------------------------------------------------


  energy-cutoff  :     1100.00
  volume of cell :     8000.00
      direct lattice vectors                 reciprocal lattice vectors
    20.000000000  0.000000000  0.000000000     0.050000000  0.000000000  0.000000000
     0.000000000 20.000000000  0.000000000     0.000000000  0.050000000  0.000000000
     0.000000000  0.000000000 20.000000000     0.000000000  0.000000000  0.050000000

  length of vectors
    20.000000000 20.000000000 20.000000000     0.050000000  0.050000000  0.050000000


 
 old parameters found on file WAVECAR:
  energy-cutoff  :     1000.00
  volume of cell :     8000.00
      direct lattice vectors                 reciprocal lattice vectors
    20.000000000  0.000000000  0.000000000     0.050000000  0.000000000  0.000000000
     0.000000000 20.000000000  0.000000000     0.000000000  0.050000000  0.000000000
     0.000000000  0.000000000 20.000000000     0.000000000  0.000000000  0.050000000

  length of vectors

 
 k-points in units of 2pi/SCALE and weight: Automatically generated mesh            
   0.00000000  0.00000000  0.00000000       1.000
 
 k-points in reciprocal lattice and weights: Automatically generated mesh            
   0.00000000  0.00000000  0.00000000       1.000
 
 position of ions in fractional coordinates (direct lattice) 
   0.25539550  0.00000350  0.07226600
   0.20902250  0.00000200  0.00708400
   0.25669500  0.00000400  0.02228050
 
 position of ions in cartesian coordinates  (Angst):
   5.10791000  0.00007000  1.44532000
   4.18045000  0.00004000  0.14168000
   5.13390000  0.00008000  0.44561000
 


--------------------------------------------------------------------------------------------------------


 k-point   1 :   0.0000 0.0000 0.0000  plane waves:  663141

 maximum and minimum number of plane-waves per node :    663141   663141

 maximum number of plane-waves:    663141
 maximum index in each direction: 
   IXMAX=   54   IYMAX=   54   IZMAX=   54
   IXMIN=  -54   IYMIN=  -54   IZMIN=  -54


 serial   3D FFT for wavefunctions
 parallel 3D FFT for charge:
    minimum data exchange during FFTs selected (reduces bandwidth)


 total amount of memory used by VASP MPI-rank0  3479136. kBytes
=======================================================================

   base      :      30000. kBytes
   nonl-proj :     116712. kBytes
   fftplans  :    1163968. kBytes
   grid      :    2083563. kBytes
   one-center:          9. kBytes
   wavefun   :      84884. kBytes
 
     INWAV:  cpu time      0.1582: real time      0.1582
 Broyden mixing: mesh for mixing (old mesh)
   NGX =109   NGY =109   NGZ =109
  (NGX  =324   NGY  =324   NGZ  =324)
  gives a total of ****** points

 charge density for first step will be calculated from the start-wavefunctions


--------------------------------------------------------------------------------------------------------


 Maximum index for augmentation-charges         6703 (set IRDMAX)


--------------------------------------------------------------------------------------------------------


 initial charge from wavefunction
 First call to EWALD:  gamma=   0.089
 Maximum number of real-space cells 3x 3x 3
 Maximum number of reciprocal cells 3x 3x 3

    FEWALD:  cpu time      0.0007: real time      0.0007


--------------------------------------- Ionic step        1  -------------------------------------------




--------------------------------------- Iteration      1(   1)  ---------------------------------------


    POTLOK:  cpu time     11.1652: real time     11.1653
    SETDIJ:  cpu time      0.0019: real time      0.0019
     EDDAV:  cpu time      4.1403: real time      4.1406
       DOS:  cpu time      0.0001: real time      0.0001
    CHARGE:  cpu time      1.2318: real time      1.2319
    MIXING:  cpu time      0.4195: real time      0.4195
    --------------------------------------------
      LOOP:  cpu time     16.9588: real time     16.9592

 eigenvalue-minimisations  :    16
 total energy-change (2. order) :-0.1423127E+02  (-0.1523717E+00)
 number of electron       7.9999996 magnetization 
 augmentation part        0.6683898 magnetization 

 Broyden mixing:
  rms(total) = 0.11419E+00    rms(broyden)= 0.11419E+00
  rms(prec ) = 0.12351E+00
  weight for this iteration     100.00

 Free energy of the ion-electron system (eV)
  ---------------------------------------------------
  alpha Z        PSCENC =         0.02803141
  Ewald energy   TEWEN  =       116.41630449
  -Hartree energ DENC   =      -515.54272913
  -exchange      EXHF   =         0.00000000
  -V(xc)+E(xc)   XCENC  =        34.01773021
  PAW double counting   =       540.56613978     -542.62741741
  entropy T*S    EENTRO =        -0.00000000
  eigenvalues    EBANDS =      -104.44316755
  atomic energy  EATOM  =       457.35383389
  Solvation  Ediel_sol  =         0.00000000
  ---------------------------------------------------
  free energy    TOTEN  =       -14.23127431 eV

  energy without entropy =      -14.23127431  energy(sigma->0) =      -14.23127431


--------------------------------------------------------------------------------------------------------




--------------------------------------- Iteration      1(   2)  ---------------------------------------


    POTLOK:  cpu time     10.0633: real time     10.0634
    SETDIJ:  cpu time      0.0019: real time      0.0019
     EDDAV:  cpu time      5.3344: real time      5.3344
       DOS:  cpu time      0.0001: real time      0.0001
    CHARGE:  cpu time      1.1683: real time      1.1683
    MIXING:  cpu time      0.4522: real time      0.4522
    --------------------------------------------
      LOOP:  cpu time     17.0202: real time     17.0204

 eigenvalue-minimisations  :    24
 total energy-change (2. order) : 0.3389870E-01  (-0.1125367E-01)
 number of electron       7.9999996 magnetization 
 augmentation part        0.6775707 magnetization 

 Broyden mixing:
  rms(total) = 0.47214E-01    rms(broyden)= 0.47214E-01
  rms(prec ) = 0.50516E-01
  weight for this iteration     100.00

 eigenvalues of (default mixing * dielectric matrix)
  average eigenvalue GAMMA=   1.2984
  1.2984

 Free energy of the ion-electron system (eV)
  ---------------------------------------------------
  alpha Z        PSCENC =         0.02803141
  Ewald energy   TEWEN  =       116.41630449
  -Hartree energ DENC   =      -512.73172628
  -exchange      EXHF   =         0.00000000
  -V(xc)+E(xc)   XCENC  =        33.86680198
  PAW double counting   =       532.80620237     -534.84997157
  entropy T*S    EENTRO =        -0.00000000
  eigenvalues    EBANDS =      -107.08685189
  atomic energy  EATOM  =       457.35383389
  Solvation  Ediel_sol  =         0.00000000
  ---------------------------------------------------
  free energy    TOTEN  =       -14.19737561 eV

  energy without entropy =      -14.19737561  energy(sigma->0) =      -14.19737561


--------------------------------------------------------------------------------------------------------




--------------------------------------- Iteration      1(   3)  ---------------------------------------


    POTLOK:  cpu time      9.9775: real time      9.9775
    SETDIJ:  cpu time      0.0019: real time      0.0019
     EDDAV:  cpu time      5.3337: real time      5.3337
       DOS:  cpu time      0.0001: real time      0.0001
    CHARGE:  cpu time      1.1669: real time      1.1669
    MIXING:  cpu time      0.4696: real time      0.4696
    --------------------------------------------
      LOOP:  cpu time     16.9497: real time     16.9498

 eigenvalue-minimisations  :    24
 total energy-change (2. order) : 0.5589377E-02  (-0.1350348E-02)
 number of electron       7.9999996 magnetization 
 augmentation part        0.6798482 magnetization 

 Broyden mixing:
  rms(total) = 0.20167E-01    rms(broyden)= 0.20167E-01
  rms(prec ) = 0.21308E-01
  weight for this iteration     100.00

 eigenvalues of (default mixing * dielectric matrix)
  average eigenvalue GAMMA=   1.5666
  1.2846  1.8486

 Free energy of the ion-electron system (eV)
  ---------------------------------------------------
  alpha Z        PSCENC =         0.02803141
  Ewald energy   TEWEN  =       116.41630449
  -Hartree energ DENC   =      -511.90101000
  -exchange      EXHF   =         0.00000000
  -V(xc)+E(xc)   XCENC  =        33.82675870
  PAW double counting   =       529.26594742     -531.31277982
  entropy T*S    EENTRO =        -0.00000000
  eigenvalues    EBANDS =      -107.86887231
  atomic energy  EATOM  =       457.35383389
  Solvation  Ediel_sol  =         0.00000000
  ---------------------------------------------------
  free energy    TOTEN  =       -14.19178623 eV

  energy without entropy =      -14.19178623  energy(sigma->0) =      -14.19178623


--------------------------------------------------------------------------------------------------------




--------------------------------------- Iteration      1(   4)  ---------------------------------------


    POTLOK:  cpu time      9.8812: real time      9.8812
    SETDIJ:  cpu time      0.0019: real time      0.0019
     EDDAV:  cpu time      6.7121: real time      6.7122
       DOS:  cpu time      0.0001: real time      0.0001
    CHARGE:  cpu time      1.1661: real time      1.1661
    MIXING:  cpu time      0.4889: real time      0.4889
    --------------------------------------------
      LOOP:  cpu time     18.2503: real time     18.2503

 eigenvalue-minimisations  :    32
 total energy-change (2. order) : 0.5565948E-03  (-0.3807095E-03)
 number of electron       7.9999996 magnetization 
 augmentation part        0.6780383 magnetization 

 Broyden mixing:
  rms(total) = 0.54822E-02    rms(broyden)= 0.54822E-02
  rms(prec ) = 0.60779E-02
  weight for this iteration     100.00

 eigenvalues of (default mixing * dielectric matrix)
  average eigenvalue GAMMA=   1.4685
  2.1590  1.1233  1.1233

 Free energy of the ion-electron system (eV)
  ---------------------------------------------------
  alpha Z        PSCENC =         0.02803141
  Ewald energy   TEWEN  =       116.41630449
  -Hartree energ DENC   =      -511.83478760
  -exchange      EXHF   =         0.00000000
  -V(xc)+E(xc)   XCENC  =        33.82733024
  PAW double counting   =       527.99396891     -530.04822748
  entropy T*S    EENTRO =        -0.00000000
  eigenvalues    EBANDS =      -107.92768349
  atomic energy  EATOM  =       457.35383389
  Solvation  Ediel_sol  =         0.00000000
  ---------------------------------------------------
  free energy    TOTEN  =       -14.19122964 eV

  energy without entropy =      -14.19122964  energy(sigma->0) =      -14.19122964


--------------------------------------------------------------------------------------------------------




--------------------------------------- Iteration      1(   5)  ---------------------------------------


    POTLOK:  cpu time      9.8405: real time      9.8405
    SETDIJ:  cpu time      0.0019: real time      0.0019
     EDDAV:  cpu time      6.7088: real time      6.7089
       DOS:  cpu time      0.0001: real time      0.0001
    CHARGE:  cpu time      1.1658: real time      1.1658
    MIXING:  cpu time      0.5072: real time      0.5072
    --------------------------------------------
      LOOP:  cpu time     18.2243: real time     18.2244

 eigenvalue-minimisations  :    32
 total energy-change (2. order) :-0.2831279E-04  (-0.7853954E-04)
 number of electron       7.9999996 magnetization 
 augmentation part        0.6793117 magnetization 

 Broyden mixing:
  rms(total) = 0.34214E-02    rms(broyden)= 0.34213E-02
  rms(prec ) = 0.36884E-02
  weight for this iteration     100.00

 eigenvalues of (default mixing * dielectric matrix)
  average eigenvalue GAMMA=   1.5626
  2.3944  1.9288  1.1405  0.7866

 Free energy of the ion-electron system (eV)
  ---------------------------------------------------
  alpha Z        PSCENC =         0.02803141
  Ewald energy   TEWEN  =       116.41630449
  -Hartree energ DENC   =      -511.60657198
  -exchange      EXHF   =         0.00000000
  -V(xc)+E(xc)   XCENC  =        33.81613972
  PAW double counting   =       527.55649266     -529.60827382
  entropy T*S    EENTRO =        -0.00000000
  eigenvalues    EBANDS =      -108.14721432
  atomic energy  EATOM  =       457.35383389
  Solvation  Ediel_sol  =         0.00000000
  ---------------------------------------------------
  free energy    TOTEN  =       -14.19125795 eV

  energy without entropy =      -14.19125795  energy(sigma->0) =      -14.19125795


--------------------------------------------------------------------------------------------------------




--------------------------------------- Iteration      1(   6)  ---------------------------------------


    POTLOK:  cpu time      9.7828: real time      9.7828
    SETDIJ:  cpu time      0.0019: real time      0.0019
     EDDAV:  cpu time      6.7019: real time      6.7020
       DOS:  cpu time      0.0001: real time      0.0001
    CHARGE:  cpu time      1.1664: real time      1.1664
    MIXING:  cpu time      0.5412: real time      0.5412
    --------------------------------------------
      LOOP:  cpu time     18.1943: real time     18.1944

 eigenvalue-minimisations  :    32
 total energy-change (2. order) :-0.9640627E-04  (-0.3706348E-05)
 number of electron       7.9999996 magnetization 
 augmentation part        0.6791899 magnetization 

 Broyden mixing:
  rms(total) = 0.10397E-02    rms(broyden)= 0.10397E-02
  rms(prec ) = 0.12665E-02
  weight for this iteration     100.00

 eigenvalues of (default mixing * dielectric matrix)
  average eigenvalue GAMMA=   1.5081
  2.5265  1.9417  1.0683  1.0683  0.9357

 Free energy of the ion-electron system (eV)
  ---------------------------------------------------
  alpha Z        PSCENC =         0.02803141
  Ewald energy   TEWEN  =       116.41630449
  -Hartree energ DENC   =      -511.57115030
  -exchange      EXHF   =         0.00000000
  -V(xc)+E(xc)   XCENC  =        33.81553113
  PAW double counting   =       527.70882057     -529.76118525
  entropy T*S    EENTRO =        -0.00000000
  eigenvalues    EBANDS =      -108.18154028
  atomic energy  EATOM  =       457.35383389
  Solvation  Ediel_sol  =         0.00000000
  ---------------------------------------------------
  free energy    TOTEN  =       -14.19135436 eV

  energy without entropy =      -14.19135436  energy(sigma->0) =      -14.19135436


--------------------------------------------------------------------------------------------------------




--------------------------------------- Iteration      1(   7)  ---------------------------------------


    POTLOK:  cpu time      9.7491: real time      9.7492
    SETDIJ:  cpu time      0.0019: real time      0.0019
     EDDAV:  cpu time      6.7076: real time      6.7077
       DOS:  cpu time      0.0001: real time      0.0001
    CHARGE:  cpu time      1.1679: real time      1.1679
    MIXING:  cpu time      0.5642: real time      0.5642
    --------------------------------------------
      LOOP:  cpu time     18.1908: real time     18.1909

 eigenvalue-minimisations  :    32
 total energy-change (2. order) :-0.3793833E-04  (-0.1594361E-05)
 number of electron       7.9999996 magnetization 
 augmentation part        0.6790125 magnetization 

 Broyden mixing:
  rms(total) = 0.33835E-03    rms(broyden)= 0.33835E-03
  rms(prec ) = 0.59990E-03
  weight for this iteration     100.00

 eigenvalues of (default mixing * dielectric matrix)
  average eigenvalue GAMMA=   1.7555
  3.2203  2.4056  1.9337  1.0300  0.9717  0.9717

 Free energy of the ion-electron system (eV)
  ---------------------------------------------------
  alpha Z        PSCENC =         0.02803141
  Ewald energy   TEWEN  =       116.41630449
  -Hartree energ DENC   =      -511.57095007
  -exchange      EXHF   =         0.00000000
  -V(xc)+E(xc)   XCENC  =        33.81605498
  PAW double counting   =       527.80256932     -529.85551428
  entropy T*S    EENTRO =        -0.00000000
  eigenvalues    EBANDS =      -108.18172203
  atomic energy  EATOM  =       457.35383389
  Solvation  Ediel_sol  =         0.00000000
  ---------------------------------------------------
  free energy    TOTEN  =       -14.19139230 eV

  energy without entropy =      -14.19139230  energy(sigma->0) =      -14.19139230


--------------------------------------------------------------------------------------------------------




--------------------------------------- Iteration      1(   8)  ---------------------------------------


    POTLOK:  cpu time      9.6724: real time      9.6725
    SETDIJ:  cpu time      0.0019: real time      0.0019
     EDDAV:  cpu time      5.3364: real time      5.3364
       DOS:  cpu time      0.0001: real time      0.0001
    CHARGE:  cpu time      1.1650: real time      1.1650
    MIXING:  cpu time      0.5940: real time      0.5940
    --------------------------------------------
      LOOP:  cpu time     16.7698: real time     16.7698

 eigenvalue-minimisations  :    24
 total energy-change (2. order) :-0.6128956E-04  (-0.1625041E-05)
 number of electron       7.9999996 magnetization 
 augmentation part        0.6790407 magnetization 

 Broyden mixing:
  rms(total) = 0.17457E-03    rms(broyden)= 0.17457E-03
  rms(prec ) = 0.27602E-03
  weight for this iteration     100.00

 eigenvalues of (default mixing * dielectric matrix)
  average eigenvalue GAMMA=   1.7290
  3.6601  2.4924  1.8283  1.2744  0.9947  0.9947  0.8585

 Free energy of the ion-electron system (eV)
  ---------------------------------------------------
  alpha Z        PSCENC =         0.02803141
  Ewald energy   TEWEN  =       116.41630449
  -Hartree energ DENC   =      -511.52167634
  -exchange      EXHF   =         0.00000000
  -V(xc)+E(xc)   XCENC  =        33.81458392
  PAW double counting   =       527.90515700     -529.95818759
  entropy T*S    EENTRO =        -0.00000000
  eigenvalues    EBANDS =      -108.22950035
  atomic energy  EATOM  =       457.35383389
  Solvation  Ediel_sol  =         0.00000000
  ---------------------------------------------------
  free energy    TOTEN  =       -14.19145359 eV

  energy without entropy =      -14.19145359  energy(sigma->0) =      -14.19145359


--------------------------------------------------------------------------------------------------------




--------------------------------------- Iteration      1(   9)  ---------------------------------------


    POTLOK:  cpu time      9.6425: real time      9.6425
    SETDIJ:  cpu time      0.0019: real time      0.0019
     EDDAV:  cpu time      6.7118: real time      6.7119
       DOS:  cpu time      0.0001: real time      0.0001
    CHARGE:  cpu time      1.1658: real time      1.1658
    MIXING:  cpu time      0.6246: real time      0.6246
    --------------------------------------------
      LOOP:  cpu time     18.1465: real time     18.1467

 eigenvalue-minimisations  :    32
 total energy-change (2. order) :-0.1157257E-04  (-0.8265089E-07)
 number of electron       7.9999996 magnetization 
 augmentation part        0.6790316 magnetization 

 Broyden mixing:
  rms(total) = 0.14540E-03    rms(broyden)= 0.14540E-03
  rms(prec ) = 0.21840E-03
  weight for this iteration     100.00

 eigenvalues of (default mixing * dielectric matrix)
  average eigenvalue GAMMA=   2.0092
  4.9914  2.7800  2.4152  1.8848  1.1528  0.9774  0.9774  0.8945

 Free energy of the ion-electron system (eV)
  ---------------------------------------------------
  alpha Z        PSCENC =         0.02803141
  Ewald energy   TEWEN  =       116.41630449
  -Hartree energ DENC   =      -511.51695791
  -exchange      EXHF   =         0.00000000
  -V(xc)+E(xc)   XCENC  =        33.81456082
  PAW double counting   =       527.90760768     -529.96063565
  entropy T*S    EENTRO =        -0.00000000
  eigenvalues    EBANDS =      -108.23420988
  atomic energy  EATOM  =       457.35383389
  Solvation  Ediel_sol  =         0.00000000
  ---------------------------------------------------
  free energy    TOTEN  =       -14.19146516 eV

  energy without entropy =      -14.19146516  energy(sigma->0) =      -14.19146516


--------------------------------------------------------------------------------------------------------




--------------------------------------- Iteration      1(  10)  ---------------------------------------


    POTLOK:  cpu time      9.5590: real time      9.5590
    SETDIJ:  cpu time      0.0019: real time      0.0019
     EDDAV:  cpu time      5.3350: real time      5.3350
       DOS:  cpu time      0.0001: real time      0.0001
    CHARGE:  cpu time      1.1653: real time      1.1653
    MIXING:  cpu time      0.6528: real time      0.6528
    --------------------------------------------
      LOOP:  cpu time     16.7140: real time     16.7140

 eigenvalue-minimisations  :    24
 total energy-change (2. order) :-0.1760292E-04  (-0.2881355E-06)
 number of electron       7.9999996 magnetization 
 augmentation part        0.6790636 magnetization 

 Broyden mixing:
  rms(total) = 0.10275E-03    rms(broyden)= 0.10275E-03
  rms(prec ) = 0.12885E-03
  weight for this iteration     100.00

 eigenvalues of (default mixing * dielectric matrix)
  average eigenvalue GAMMA=   1.9900
  5.4470  3.0476  2.4563  1.8747  1.1147  1.1147  0.9590  0.9590  0.9374

 Free energy of the ion-electron system (eV)
  ---------------------------------------------------
  alpha Z        PSCENC =         0.02803141
  Ewald energy   TEWEN  =       116.41630449
  -Hartree energ DENC   =      -511.50238902
  -exchange      EXHF   =         0.00000000
  -V(xc)+E(xc)   XCENC  =        33.81415965
  PAW double counting   =       527.87461838     -529.92756552
  entropy T*S    EENTRO =        -0.00000000
  eigenvalues    EBANDS =      -108.24847603
  atomic energy  EATOM  =       457.35383389
  Solvation  Ediel_sol  =         0.00000000
  ---------------------------------------------------
  free energy    TOTEN  =       -14.19148276 eV

  energy without entropy =      -14.19148276  energy(sigma->0) =      -14.19148276


--------------------------------------------------------------------------------------------------------




--------------------------------------- Iteration      1(  11)  ---------------------------------------


    POTLOK:  cpu time      9.5453: real time      9.5454
    SETDIJ:  cpu time      0.0019: real time      0.0019
     EDDAV:  cpu time      5.3333: real time      5.3334
       DOS:  cpu time      0.0001: real time      0.0001
    CHARGE:  cpu time      1.1654: real time      1.1654
    MIXING:  cpu time      0.6983: real time      0.6982
    --------------------------------------------
      LOOP:  cpu time     16.7442: real time     16.7444

 eigenvalue-minimisations  :    24
 total energy-change (2. order) :-0.6167358E-05  (-0.3580854E-07)
 number of electron       7.9999996 magnetization 
 augmentation part        0.6790445 magnetization 

 Broyden mixing:
  rms(total) = 0.49068E-04    rms(broyden)= 0.49068E-04
  rms(prec ) = 0.68266E-04
  weight for this iteration     100.00

 eigenvalues of (default mixing * dielectric matrix)
  average eigenvalue GAMMA=   2.2460
  6.7359  3.8526  2.6866  2.3760  1.8876  1.1135  1.0004  1.0004  0.9036  0.9036

 Free energy of the ion-electron system (eV)
  ---------------------------------------------------
  alpha Z        PSCENC =         0.02803141
  Ewald energy   TEWEN  =       116.41630449
  -Hartree energ DENC   =      -511.50468287
  -exchange      EXHF   =         0.00000000
  -V(xc)+E(xc)   XCENC  =        33.81433650
  PAW double counting   =       527.87914073     -529.93213225
  entropy T*S    EENTRO =        -0.00000000
  eigenvalues    EBANDS =      -108.24632082
  atomic energy  EATOM  =       457.35383389
  Solvation  Ediel_sol  =         0.00000000
  ---------------------------------------------------
  free energy    TOTEN  =       -14.19148893 eV

  energy without entropy =      -14.19148893  energy(sigma->0) =      -14.19148893


--------------------------------------------------------------------------------------------------------




--------------------------------------- Iteration      1(  12)  ---------------------------------------


    POTLOK:  cpu time      9.5778: real time      9.5778
    SETDIJ:  cpu time      0.0019: real time      0.0019
     EDDAV:  cpu time      3.9812: real time      3.9813
       DOS:  cpu time      0.0001: real time      0.0001
    CHARGE:  cpu time      1.1650: real time      1.1650
    MIXING:  cpu time      0.7318: real time      0.7318
    --------------------------------------------
      LOOP:  cpu time     15.4578: real time     15.4580

 eigenvalue-minimisations  :    16
 total energy-change (2. order) :-0.7528513E-05  (-0.4084180E-07)
 number of electron       7.9999996 magnetization 
 augmentation part        0.6790451 magnetization 

 Broyden mixing:
  rms(total) = 0.21602E-04    rms(broyden)= 0.21601E-04
  rms(prec ) = 0.30105E-04
  weight for this iteration     100.00

 eigenvalues of (default mixing * dielectric matrix)
  average eigenvalue GAMMA=   2.2798
  7.2239  4.1503  2.7585  2.3870  1.8154  1.8154  1.0888  0.9753  0.9753  0.9720
  0.9155

 Free energy of the ion-electron system (eV)
  ---------------------------------------------------
  alpha Z        PSCENC =         0.02803141
  Ewald energy   TEWEN  =       116.41630449
  -Hartree energ DENC   =      -511.50393462
  -exchange      EXHF   =         0.00000000
  -V(xc)+E(xc)   XCENC  =        33.81436062
  PAW double counting   =       527.88832983     -529.94132686
  entropy T*S    EENTRO =        -0.00000000
  eigenvalues    EBANDS =      -108.24709521
  atomic energy  EATOM  =       457.35383389
  Solvation  Ediel_sol  =         0.00000000
  ---------------------------------------------------
  free energy    TOTEN  =       -14.19149646 eV

  energy without entropy =      -14.19149646  energy(sigma->0) =      -14.19149646


--------------------------------------------------------------------------------------------------------




--------------------------------------- Iteration      1(  13)  ---------------------------------------


    POTLOK:  cpu time      9.6386: real time      9.6386
    SETDIJ:  cpu time      0.0019: real time      0.0019
     EDDAV:  cpu time      5.3315: real time      5.3316
       DOS:  cpu time      0.0001: real time      0.0001
    CHARGE:  cpu time      1.1637: real time      1.1637
    MIXING:  cpu time      0.7715: real time      0.7715
    --------------------------------------------
      LOOP:  cpu time     16.9072: real time     16.9074

 eigenvalue-minimisations  :    24
 total energy-change (2. order) :-0.3229572E-05  (-0.8010508E-08)
 number of electron       7.9999996 magnetization 
 augmentation part        0.6790520 magnetization 

 Broyden mixing:
  rms(total) = 0.21661E-04    rms(broyden)= 0.21661E-04
  rms(prec ) = 0.25802E-04
  weight for this iteration     100.00

 eigenvalues of (default mixing * dielectric matrix)
  average eigenvalue GAMMA=   2.3622
  7.9808  4.5479  3.0926  2.4933  2.3681  1.8917  1.1193  1.1193  0.9650  0.9650
  0.9016  0.9016

 Free energy of the ion-electron system (eV)
  ---------------------------------------------------
  alpha Z        PSCENC =         0.02803141
  Ewald energy   TEWEN  =       116.41630449
  -Hartree energ DENC   =      -511.50294304
  -exchange      EXHF   =         0.00000000
  -V(xc)+E(xc)   XCENC  =        33.81431822
  PAW double counting   =       527.88616674     -529.93915322
  entropy T*S    EENTRO =        -0.00000000
  eigenvalues    EBANDS =      -108.24805817
  atomic energy  EATOM  =       457.35383389
  Solvation  Ediel_sol  =         0.00000000
  ---------------------------------------------------
  free energy    TOTEN  =       -14.19149969 eV

  energy without entropy =      -14.19149969  energy(sigma->0) =      -14.19149969


--------------------------------------------------------------------------------------------------------




--------------------------------------- Iteration      1(  14)  ---------------------------------------


    POTLOK:  cpu time      9.7736: real time      9.7736
    SETDIJ:  cpu time      0.0019: real time      0.0019
     EDDAV:  cpu time      3.9770: real time      3.9770
       DOS:  cpu time      0.0001: real time      0.0001
    CHARGE:  cpu time      1.1654: real time      1.1654
    MIXING:  cpu time      0.8148: real time      0.8148
    --------------------------------------------
      LOOP:  cpu time     15.7327: real time     15.7328

 eigenvalue-minimisations  :    16
 total energy-change (2. order) :-0.1781287E-05  (-0.4230509E-08)
 number of electron       7.9999996 magnetization 
 augmentation part        0.6790459 magnetization 

 Broyden mixing:
  rms(total) = 0.14051E-04    rms(broyden)= 0.14051E-04
  rms(prec ) = 0.16186E-04
  weight for this iteration     100.00

 eigenvalues of (default mixing * dielectric matrix)
  average eigenvalue GAMMA=   2.3514
  8.0710  5.0143  3.2283  2.6713  2.3185  1.8827  1.4617  1.0974  1.0974  0.9479
  0.9479  0.9153  0.9153

 Free energy of the ion-electron system (eV)
  ---------------------------------------------------
  alpha Z        PSCENC =         0.02803141
  Ewald energy   TEWEN  =       116.41630449
  -Hartree energ DENC   =      -511.50361970
  -exchange      EXHF   =         0.00000000
  -V(xc)+E(xc)   XCENC  =        33.81436359
  PAW double counting   =       527.88687555     -529.93987604
  entropy T*S    EENTRO =        -0.00000000
  eigenvalues    EBANDS =      -108.24741465
  atomic energy  EATOM  =       457.35383389
  Solvation  Ediel_sol  =         0.00000000
  ---------------------------------------------------
  free energy    TOTEN  =       -14.19150147 eV

  energy without entropy =      -14.19150147  energy(sigma->0) =      -14.19150147


--------------------------------------------------------------------------------------------------------




--------------------------------------- Iteration      1(  15)  ---------------------------------------


    POTLOK:  cpu time      9.8699: real time      9.8699
    SETDIJ:  cpu time      0.0019: real time      0.0019
     EDDAV:  cpu time      5.3292: real time      5.3292
       DOS:  cpu time      0.0001: real time      0.0001
    --------------------------------------------
      LOOP:  cpu time     15.2010: real time     15.2011

 eigenvalue-minimisations  :    24
 total energy-change (2. order) :-0.7502505E-06  (-0.1109656E-08)
 number of electron       7.9999996 magnetization 
 augmentation part        0.6790459 magnetization 

 Free energy of the ion-electron system (eV)
  ---------------------------------------------------
  alpha Z        PSCENC =         0.02803141
  Ewald energy   TEWEN  =       116.41630449
  -Hartree energ DENC   =      -511.50314605
  -exchange      EXHF   =         0.00000000
  -V(xc)+E(xc)   XCENC  =        33.81434023
  PAW double counting   =       527.88611009     -529.93909886
  entropy T*S    EENTRO =        -0.00000000
  eigenvalues    EBANDS =      -108.24787742
  atomic energy  EATOM  =       457.35383389
  Solvation  Ediel_sol  =         0.00000000
  ---------------------------------------------------
  free energy    TOTEN  =       -14.19150222 eV

  energy without entropy =      -14.19150222  energy(sigma->0) =      -14.19150222


--------------------------------------------------------------------------------------------------------




 average (electrostatic) potential at core
  the test charge radii are     0.5201  0.7215
  (the norm of the test charge is              1.0000)
       1 -44.3685       2 -44.3619       3 -80.5324
 
 
 
 E-fermi :  -6.1754     XC(G=0):  -0.0941     alpha+bet : -0.0163

 Fermi energy:        -6.1753560434

 k-point     1 :       0.0000    0.0000    0.0000
  band No.  band energies     occupation 
      1     -24.9518      2.00000
      2     -12.9112      2.00000
      3      -9.1350      2.00000
      4      -7.1258      2.00000
      5      -1.0744      0.00000
      6       0.0184      0.00000
      7       0.2001      0.00000
      8       0.3103      0.00000


--------------------------------------------------------------------------------------------------------


 soft charge-density along one line, spin component           1
         0         1         2         3         4         5         6         7         8         9
 total charge-density along one line
 
 pseudopotential strength for first ion, spin component:           1
 -2.381  -4.111  -0.000   0.003   0.000
 -4.111  -7.012  -0.000   0.008   0.000
 -0.000  -0.000  -0.326  -0.000  -0.000
  0.003   0.008  -0.000  -0.318  -0.000
  0.000   0.000  -0.000  -0.000  -0.326
 total augmentation occupancy for first ion, spin component:           1
  3.592  -0.756   0.000  -0.649   0.005
 -0.756   0.204   0.000   0.135  -0.006
  0.000   0.000   0.035   0.000   0.000
 -0.649   0.135   0.000   0.118  -0.003
  0.005  -0.006   0.000  -0.003   0.023


------------------------ aborting loop because EDIFF is reached ----------------------------------------


    CHARGE:  cpu time      1.1633: real time      1.1633
    FORLOC:  cpu time      0.8585: real time      0.8585
    FORNL :  cpu time      0.4087: real time      0.4087
    STRESS:  cpu time      4.1673: real time      4.1673
    FORCOR:  cpu time     11.2836: real time     11.2836
    FORHAR:  cpu time      3.0482: real time      3.0482
    MIXING:  cpu time      0.8537: real time      0.8537
    OFIELD:  cpu time      0.0000: real time      0.0000

  FORCE on cell =-STRESS in cart. coord.  units (eV):
  Direction    XX          YY          ZZ          XY          YZ          ZX
  --------------------------------------------------------------------------------------
  Alpha Z     0.02803     0.02803     0.02803
  Ewald      59.69800   -21.81814    78.53640     0.00341     0.00032    26.95786
  Hartree   174.39663   159.30133   177.80550     0.00023    -0.00014     4.88993
  E(xc)     -35.84572   -36.20361   -35.77167    -0.00000     0.00000     0.10648
  Local    -318.55749  -246.17101  -335.77085    -0.00107    -0.00100   -24.65246
  n-local   -30.02616   -30.47544   -29.77813     0.00055    -0.00044     0.36797
  augment     6.37330     8.09129     6.05027    -0.00001     0.00003    -0.46400
  Kinetic   142.78326   167.24160   137.40386    -0.00159     0.00024    -7.74683
  Fock        0.00000     0.00000     0.00000     0.00000     0.00000     0.00000
  -------------------------------------------------------------------------------------
  Total      -1.15016    -0.00595    -1.49659     0.00000     0.00000    -0.54105
  in kB      -0.23034    -0.00119    -0.29973     0.00000     0.00000    -0.10836
  external pressure =       -0.18 kB  Pullay stress =        0.00 kB


 VOLUME and BASIS-vectors are now :
 -----------------------------------------------------------------------------
  energy-cutoff  :     1100.00
  volume of cell :     8000.00
      direct lattice vectors                 reciprocal lattice vectors
    20.000000000  0.000000000  0.000000000     0.050000000  0.000000000  0.000000000
     0.000000000 20.000000000  0.000000000     0.000000000  0.050000000  0.000000000
     0.000000000  0.000000000 20.000000000     0.000000000  0.000000000  0.050000000

  length of vectors
    20.000000000 20.000000000 20.000000000     0.050000000  0.050000000  0.050000000


 FORCES acting on ions
    electron-ion (+dipol)            ewald-force                    non-local-force                 convergence-correction
 -----------------------------------------------------------------------------------------------
   -.107E+01 -.814E-02 -.847E+02   0.101E+01 -.758E-03 0.909E+02   -.111E+00 -.678E-20 -.752E+01   -.636E-05 0.445E-09 0.263E-04
   0.796E+02 -.434E-02 0.288E+02   -.854E+02 -.355E-02 -.308E+02   0.705E+01 0.136E-19 0.257E+01   -.261E-04 -.133E-09 -.383E-05
   -.468E+02 -.116E+00 0.334E+02   0.844E+02 0.431E-02 -.601E+02   -.386E+02 -.867E-18 0.275E+02   -.879E-05 0.467E-07 -.198E-04
 -----------------------------------------------------------------------------------------------
   0.317E+02 -.129E+00 -.225E+02   0.000E+00 -.607E-17 -.711E-14   -.317E+02 -.861E-18 0.225E+02   -.412E-04 0.471E-07 0.267E-05
 
 
 POSITION                                       TOTAL-FORCE (eV/Angst)
 -----------------------------------------------------------------------------------
      5.10791      0.00007      1.44532        -0.175294      0.000000     -1.306697
      4.18045      0.00004      0.14168         1.202828      0.000000      0.602625
      5.13390      0.00008      0.44561        -1.027534     -0.000000      0.704072
 -----------------------------------------------------------------------------------
    total drift:                                0.000548     -0.128759      0.000347


--------------------------------------------------------------------------------------------------------



  FREE ENERGIE OF THE ION-ELECTRON SYSTEM (eV)
  ---------------------------------------------------
  free  energy   TOTEN  =       -14.19150222 eV

  energy  without entropy=      -14.19150222  energy(sigma->0) =      -14.19150222
 


--------------------------------------------------------------------------------------------------------


    POTLOK:  cpu time      9.9401: real time      9.9402


--------------------------------------------------------------------------------------------------------




--------------------------------------------------------------------------------------------------------


    WAVPRE:  cpu time     27.6827: real time     27.6839
    FEWALD:  cpu time      0.0001: real time      0.0001
    ORTHCH:  cpu time      0.1679: real time      0.1679
     LOOP+:  cpu time    315.0386: real time    315.0418


--------------------------------------- Ionic step        2  -------------------------------------------




--------------------------------------- Iteration      2(   1)  ---------------------------------------


    POTLOK:  cpu time      9.8791: real time      9.8793
    SETDIJ:  cpu time      0.0019: real time      0.0019
     EDDAV:  cpu time      3.9769: real time      3.9770
       DOS:  cpu time      0.0001: real time      0.0001
    CHARGE:  cpu time      1.1694: real time      1.1694
    MIXING:  cpu time      0.4307: real time      0.4307
    --------------------------------------------
      LOOP:  cpu time     15.4581: real time     15.4584

 eigenvalue-minimisations  :    16
 total energy-change (2. order) : 0.1891369E+00  (-0.2974204E+01)
 number of electron       7.9999998 magnetization 
 augmentation part        0.7466288 magnetization 

 Broyden mixing:
  rms(total) = 0.20633E+00    rms(broyden)= 0.20632E+00
  rms(prec ) = 0.21801E+00
  weight for this iteration     100.00

 Free energy of the ion-electron system (eV)
  ---------------------------------------------------
  alpha Z        PSCENC =         0.02803141
  Ewald energy   TEWEN  =       136.00965985
  -Hartree energ DENC   =      -520.52453507
  -exchange      EXHF   =         0.00000000
  -V(xc)+E(xc)   XCENC  =        34.23621624
  PAW double counting   =       527.88631617     -529.93930669
  entropy T*S    EENTRO =        -0.00000000
  eigenvalues    EBANDS =      -119.05258035
  atomic energy  EATOM  =       457.35383389
  Solvation  Ediel_sol  =         0.00000000
  ---------------------------------------------------
  free energy    TOTEN  =       -14.00236454 eV

  energy without entropy =      -14.00236454  energy(sigma->0) =      -14.00236454


--------------------------------------------------------------------------------------------------------




--------------------------------------- Iteration      2(   2)  ---------------------------------------


    POTLOK:  cpu time      9.3690: real time      9.3690
    SETDIJ:  cpu time      0.0019: real time      0.0019
     EDDAV:  cpu time      3.9815: real time      3.9815
       DOS:  cpu time      0.0001: real time      0.0001
    CHARGE:  cpu time      1.1671: real time      1.1670
    MIXING:  cpu time      0.4461: real time      0.4461
    --------------------------------------------
      LOOP:  cpu time     14.9655: real time     14.9655

 eigenvalue-minimisations  :    16
 total energy-change (2. order) : 0.4358451E-01  (-0.6833833E-01)
 number of electron       7.9999998 magnetization 
 augmentation part        0.7366339 magnetization 

 Broyden mixing:
  rms(total) = 0.85452E-01    rms(broyden)= 0.85452E-01
  rms(prec ) = 0.89284E-01
  weight for this iteration     100.00

 eigenvalues of (default mixing * dielectric matrix)
  average eigenvalue GAMMA=   1.2832
  1.2832

 Free energy of the ion-electron system (eV)
  ---------------------------------------------------
  alpha Z        PSCENC =         0.02803141
  Ewald energy   TEWEN  =       136.00965985
  -Hartree energ DENC   =      -525.13022581
  -exchange      EXHF   =         0.00000000
  -V(xc)+E(xc)   XCENC  =        34.49653751
  PAW double counting   =       557.41772489     -559.55715900
  entropy T*S    EENTRO =        -0.00000000
  eigenvalues    EBANDS =      -114.57718277
  atomic energy  EATOM  =       457.35383389
  Solvation  Ediel_sol  =         0.00000000
  ---------------------------------------------------
  free energy    TOTEN  =       -13.95878004 eV

  energy without entropy =      -13.95878004  energy(sigma->0) =      -13.95878004


--------------------------------------------------------------------------------------------------------




--------------------------------------- Iteration      2(   3)  ---------------------------------------


    POTLOK:  cpu time      9.4546: real time      9.4547
    SETDIJ:  cpu time      0.0019: real time      0.0019
     EDDAV:  cpu time      3.9831: real time      3.9832
       DOS:  cpu time      0.0001: real time      0.0001
    CHARGE:  cpu time      1.1685: real time      1.1685
    MIXING:  cpu time      0.4688: real time      0.4688
    --------------------------------------------
      LOOP:  cpu time     15.0770: real time     15.0772

 eigenvalue-minimisations  :    16
 total energy-change (2. order) : 0.1045513E-01  (-0.6282725E-02)
 number of electron       7.9999998 magnetization 
 augmentation part        0.7270898 magnetization 

 Broyden mixing:
  rms(total) = 0.37528E-01    rms(broyden)= 0.37528E-01
  rms(prec ) = 0.39058E-01
  weight for this iteration     100.00

 eigenvalues of (default mixing * dielectric matrix)
  average eigenvalue GAMMA=   1.3488
  1.3488  1.3488

 Free energy of the ion-electron system (eV)
  ---------------------------------------------------
  alpha Z        PSCENC =         0.02803141
  Ewald energy   TEWEN  =       136.00965985
  -Hartree energ DENC   =      -526.84700991
  -exchange      EXHF   =         0.00000000
  -V(xc)+E(xc)   XCENC  =        34.59487544
  PAW double counting   =       577.83526674     -580.02709463
  entropy T*S    EENTRO =        -0.00000000
  eigenvalues    EBANDS =      -112.89588770
  atomic energy  EATOM  =       457.35383389
  Solvation  Ediel_sol  =         0.00000000
  ---------------------------------------------------
  free energy    TOTEN  =       -13.94832491 eV

  energy without entropy =      -13.94832491  energy(sigma->0) =      -13.94832491


--------------------------------------------------------------------------------------------------------




--------------------------------------- Iteration      2(   4)  ---------------------------------------


    POTLOK:  cpu time      9.6051: real time      9.6051
    SETDIJ:  cpu time      0.0019: real time      0.0019
     EDDAV:  cpu time      5.3341: real time      5.3341
       DOS:  cpu time      0.0001: real time      0.0001
    CHARGE:  cpu time      1.1676: real time      1.1680
    MIXING:  cpu time      0.4907: real time      0.4907
    --------------------------------------------
      LOOP:  cpu time     16.5994: real time     16.5998

 eigenvalue-minimisations  :    24
 total energy-change (2. order) : 0.1430603E-02  (-0.1272820E-02)
 number of electron       7.9999998 magnetization 
 augmentation part        0.7318507 magnetization 

 Broyden mixing:
  rms(total) = 0.19749E-01    rms(broyden)= 0.19749E-01
  rms(prec ) = 0.20651E-01
  weight for this iteration     100.00

 eigenvalues of (default mixing * dielectric matrix)
  average eigenvalue GAMMA=   1.4415
  2.3376  0.9935  0.9935

 Free energy of the ion-electron system (eV)
  ---------------------------------------------------
  alpha Z        PSCENC =         0.02803141
  Ewald energy   TEWEN  =       136.00965985
  -Hartree energ DENC   =      -526.27436300
  -exchange      EXHF   =         0.00000000
  -V(xc)+E(xc)   XCENC  =        34.56407170
  PAW double counting   =       585.18983199     -587.38121577
  entropy T*S    EENTRO =        -0.00000000
  eigenvalues    EBANDS =      -113.43674438
  atomic energy  EATOM  =       457.35383389
  Solvation  Ediel_sol  =         0.00000000
  ---------------------------------------------------
  free energy    TOTEN  =       -13.94689430 eV

  energy without entropy =      -13.94689430  energy(sigma->0) =      -13.94689430


--------------------------------------------------------------------------------------------------------




--------------------------------------- Iteration      2(   5)  ---------------------------------------


    POTLOK:  cpu time      9.6703: real time      9.6703
    SETDIJ:  cpu time      0.0019: real time      0.0019
     EDDAV:  cpu time      5.3358: real time      5.3359
       DOS:  cpu time      0.0001: real time      0.0001
    CHARGE:  cpu time      1.1701: real time      1.1701
    MIXING:  cpu time      0.5093: real time      0.5093
    --------------------------------------------
      LOOP:  cpu time     16.6874: real time     16.6875

 eigenvalue-minimisations  :    24
 total energy-change (2. order) : 0.4986643E-03  (-0.3246469E-03)
 number of electron       7.9999998 magnetization 
 augmentation part        0.7299513 magnetization 

 Broyden mixing:
  rms(total) = 0.28836E-02    rms(broyden)= 0.28836E-02
  rms(prec ) = 0.31757E-02
  weight for this iteration     100.00

 eigenvalues of (default mixing * dielectric matrix)
  average eigenvalue GAMMA=   1.4976
  2.3047  1.6342  1.1388  0.9126

 Free energy of the ion-electron system (eV)
  ---------------------------------------------------
  alpha Z        PSCENC =         0.02803141
  Ewald energy   TEWEN  =       136.00965985
  -Hartree energ DENC   =      -526.70166774
  -exchange      EXHF   =         0.00000000
  -V(xc)+E(xc)   XCENC  =        34.58911650
  PAW double counting   =       594.17656210     -596.38793025
  entropy T*S    EENTRO =        -0.00000000
  eigenvalues    EBANDS =      -113.01400140
  atomic energy  EATOM  =       457.35383389
  Solvation  Ediel_sol  =         0.00000000
  ---------------------------------------------------
  free energy    TOTEN  =       -13.94639564 eV

  energy without entropy =      -13.94639564  energy(sigma->0) =      -13.94639564


--------------------------------------------------------------------------------------------------------




--------------------------------------- Iteration      2(   6)  ---------------------------------------


    POTLOK:  cpu time      9.7276: real time      9.7276
    SETDIJ:  cpu time      0.0019: real time      0.0019
     EDDAV:  cpu time      5.3327: real time      5.3327
       DOS:  cpu time      0.0001: real time      0.0001
    CHARGE:  cpu time      1.1675: real time      1.1679
    MIXING:  cpu time      0.5409: real time      0.5409
    --------------------------------------------
      LOOP:  cpu time     16.7705: real time     16.7710

 eigenvalue-minimisations  :    24
 total energy-change (2. order) :-0.1726141E-03  (-0.1764922E-04)
 number of electron       7.9999998 magnetization 
 augmentation part        0.7295012 magnetization 

 Broyden mixing:
  rms(total) = 0.20132E-02    rms(broyden)= 0.20132E-02
  rms(prec ) = 0.22773E-02
  weight for this iteration     100.00

 eigenvalues of (default mixing * dielectric matrix)
  average eigenvalue GAMMA=   1.4691
  2.4771  1.8188  1.1372  0.9562  0.9562

 Free energy of the ion-electron system (eV)
  ---------------------------------------------------
  alpha Z        PSCENC =         0.02803141
  Ewald energy   TEWEN  =       136.00965985
  -Hartree energ DENC   =      -526.73615524
  -exchange      EXHF   =         0.00000000
  -V(xc)+E(xc)   XCENC  =        34.59062443
  PAW double counting   =       594.86740933     -597.08089771
  entropy T*S    EENTRO =        -0.00000000
  eigenvalues    EBANDS =      -112.97907421
  atomic energy  EATOM  =       457.35383389
  Solvation  Ediel_sol  =         0.00000000
  ---------------------------------------------------
  free energy    TOTEN  =       -13.94656825 eV

  energy without entropy =      -13.94656825  energy(sigma->0) =      -13.94656825


--------------------------------------------------------------------------------------------------------




--------------------------------------- Iteration      2(   7)  ---------------------------------------


    POTLOK:  cpu time      9.7661: real time      9.7661
    SETDIJ:  cpu time      0.0019: real time      0.0019
     EDDAV:  cpu time      5.3395: real time      5.3395
       DOS:  cpu time      0.0001: real time      0.0001
    CHARGE:  cpu time      1.1687: real time      1.1688
    MIXING:  cpu time      0.5654: real time      0.5654
    --------------------------------------------
      LOOP:  cpu time     16.8417: real time     16.8418

 eigenvalue-minimisations  :    24
 total energy-change (2. order) :-0.7362850E-04  (-0.4933120E-05)
 number of electron       7.9999998 magnetization 
 augmentation part        0.7298262 magnetization 

 Broyden mixing:
  rms(total) = 0.44772E-03    rms(broyden)= 0.44772E-03
  rms(prec ) = 0.74231E-03
  weight for this iteration     100.00

 eigenvalues of (default mixing * dielectric matrix)
  average eigenvalue GAMMA=   1.5295
  2.5016  2.1756  1.4873  0.9232  0.9232  1.1661

 Free energy of the ion-electron system (eV)
  ---------------------------------------------------
  alpha Z        PSCENC =         0.02803141
  Ewald energy   TEWEN  =       136.00965985
  -Hartree energ DENC   =      -526.69827714
  -exchange      EXHF   =         0.00000000
  -V(xc)+E(xc)   XCENC  =        34.58830118
  PAW double counting   =       595.13548262     -597.34836139
  entropy T*S    EENTRO =        -0.00000000
  eigenvalues    EBANDS =      -113.01531231
  atomic energy  EATOM  =       457.35383389
  Solvation  Ediel_sol  =         0.00000000
  ---------------------------------------------------
  free energy    TOTEN  =       -13.94664188 eV

  energy without entropy =      -13.94664188  energy(sigma->0) =      -13.94664188


--------------------------------------------------------------------------------------------------------




--------------------------------------- Iteration      2(   8)  ---------------------------------------


    POTLOK:  cpu time      9.8209: real time      9.8209
    SETDIJ:  cpu time      0.0019: real time      0.0019
     EDDAV:  cpu time      5.3370: real time      5.3370
       DOS:  cpu time      0.0001: real time      0.0001
    CHARGE:  cpu time      1.1679: real time      1.1679
    MIXING:  cpu time      0.5930: real time      0.5930
    --------------------------------------------
      LOOP:  cpu time     16.9208: real time     16.9209

 eigenvalue-minimisations  :    24
 total energy-change (2. order) :-0.1296868E-03  (-0.1894946E-05)
 number of electron       7.9999998 magnetization 
 augmentation part        0.7299535 magnetization 

 Broyden mixing:
  rms(total) = 0.58493E-03    rms(broyden)= 0.58493E-03
  rms(prec ) = 0.72613E-03
  weight for this iteration     100.00

 eigenvalues of (default mixing * dielectric matrix)
  average eigenvalue GAMMA=   1.6089
  3.0323  2.3958  1.8403  0.9998  0.9998  0.9971  0.9971

 Free energy of the ion-electron system (eV)
  ---------------------------------------------------
  alpha Z        PSCENC =         0.02803141
  Ewald energy   TEWEN  =       136.00965985
  -Hartree energ DENC   =      -526.68406192
  -exchange      EXHF   =         0.00000000
  -V(xc)+E(xc)   XCENC  =        34.58705511
  PAW double counting   =       595.09856345     -597.31098762
  entropy T*S    EENTRO =        -0.00000000
  eigenvalues    EBANDS =      -113.02886574
  atomic energy  EATOM  =       457.35383389
  Solvation  Ediel_sol  =         0.00000000
  ---------------------------------------------------
  free energy    TOTEN  =       -13.94677157 eV

  energy without entropy =      -13.94677157  energy(sigma->0) =      -13.94677157


--------------------------------------------------------------------------------------------------------




--------------------------------------- Iteration      2(   9)  ---------------------------------------


    POTLOK:  cpu time      9.8702: real time      9.8702
    SETDIJ:  cpu time      0.0019: real time      0.0019
     EDDAV:  cpu time      5.3433: real time      5.3433
       DOS:  cpu time      0.0001: real time      0.0001
    CHARGE:  cpu time      1.1682: real time      1.1682
    MIXING:  cpu time      0.6250: real time      0.6250
    --------------------------------------------
      LOOP:  cpu time     17.0087: real time     17.0088

 eigenvalue-minimisations  :    24
 total energy-change (2. order) :-0.9672799E-04  (-0.1307007E-05)
 number of electron       7.9999998 magnetization 
 augmentation part        0.7298564 magnetization 

 Broyden mixing:
  rms(total) = 0.16869E-03    rms(broyden)= 0.16869E-03
  rms(prec ) = 0.28803E-03
  weight for this iteration     100.00

 eigenvalues of (default mixing * dielectric matrix)
  average eigenvalue GAMMA=   1.8346
  4.3358  2.5279  2.0565  1.8506  0.9826  0.9826  1.0250  0.9158

 Free energy of the ion-electron system (eV)
  ---------------------------------------------------
  alpha Z        PSCENC =         0.02803141
  Ewald energy   TEWEN  =       136.00965985
  -Hartree energ DENC   =      -526.70632061
  -exchange      EXHF   =         0.00000000
  -V(xc)+E(xc)   XCENC  =        34.58793899
  PAW double counting   =       595.12260974     -597.33524891
  entropy T*S    EENTRO =        -0.00000000
  eigenvalues    EBANDS =      -113.00737265
  atomic energy  EATOM  =       457.35383389
  Solvation  Ediel_sol  =         0.00000000
  ---------------------------------------------------
  free energy    TOTEN  =       -13.94686830 eV

  energy without entropy =      -13.94686830  energy(sigma->0) =      -13.94686830


--------------------------------------------------------------------------------------------------------




--------------------------------------- Iteration      2(  10)  ---------------------------------------


    POTLOK:  cpu time      9.9385: real time      9.9385
    SETDIJ:  cpu time      0.0019: real time      0.0019
     EDDAV:  cpu time      5.3355: real time      5.3356
       DOS:  cpu time      0.0001: real time      0.0001
    CHARGE:  cpu time      1.1688: real time      1.1689
    MIXING:  cpu time      0.6569: real time      0.6569
    --------------------------------------------
      LOOP:  cpu time     17.1017: real time     17.1018

 eigenvalue-minimisations  :    24
 total energy-change (2. order) :-0.8229729E-04  (-0.8696036E-06)
 number of electron       7.9999998 magnetization 
 augmentation part        0.7298529 magnetization 

 Broyden mixing:
  rms(total) = 0.12880E-03    rms(broyden)= 0.12880E-03
  rms(prec ) = 0.17009E-03
  weight for this iteration     100.00

 eigenvalues of (default mixing * dielectric matrix)
  average eigenvalue GAMMA=   1.9875
  5.8281  2.7278  2.3735  1.8808  0.9920  0.9920  1.1305  1.0157  0.9470

 Free energy of the ion-electron system (eV)
  ---------------------------------------------------
  alpha Z        PSCENC =         0.02803141
  Ewald energy   TEWEN  =       136.00965985
  -Hartree energ DENC   =      -526.71461644
  -exchange      EXHF   =         0.00000000
  -V(xc)+E(xc)   XCENC  =        34.58810188
  PAW double counting   =       595.09079510     -597.30342037
  entropy T*S    EENTRO =        -0.00000000
  eigenvalues    EBANDS =      -112.99933592
  atomic energy  EATOM  =       457.35383389
  Solvation  Ediel_sol  =         0.00000000
  ---------------------------------------------------
  free energy    TOTEN  =       -13.94695060 eV

  energy without entropy =      -13.94695060  energy(sigma->0) =      -13.94695060


--------------------------------------------------------------------------------------------------------




--------------------------------------- Iteration      2(  11)  ---------------------------------------


    POTLOK:  cpu time      9.9646: real time      9.9646
    SETDIJ:  cpu time      0.0019: real time      0.0019
     EDDAV:  cpu time      6.7146: real time      6.7146
       DOS:  cpu time      0.0001: real time      0.0001
    CHARGE:  cpu time      1.1689: real time      1.1689
    MIXING:  cpu time      0.6976: real time      0.6976
    --------------------------------------------
      LOOP:  cpu time     18.5476: real time     18.5477

[...]
  rms(prec ) = 0.22181E-03
  weight for this iteration     100.00

 eigenvalues of (default mixing * dielectric matrix)
  average eigenvalue GAMMA=   1.7066
  1.0473  2.0362  2.0362

 Free energy of the ion-electron system (eV)
  ---------------------------------------------------
  alpha Z        PSCENC =         0.02803141
  Ewald energy   TEWEN  =       121.87856729
  -Hartree energ DENC   =      -515.75783410
  -exchange      EXHF   =         0.00000000
  -V(xc)+E(xc)   XCENC  =        34.02852928
  PAW double counting   =       544.70942970     -546.79057911
  entropy T*S    EENTRO =        -0.00000000
  eigenvalues    EBANDS =      -109.68360635
  atomic energy  EATOM  =       457.35383389
  Solvation  Ediel_sol  =         0.00000000
  ---------------------------------------------------
  free energy    TOTEN  =       -14.23362800 eV

  energy without entropy =      -14.23362800  energy(sigma->0) =      -14.23362800


--------------------------------------------------------------------------------------------------------




--------------------------------------- Iteration      9(   5)  ---------------------------------------


    POTLOK:  cpu time      9.8307: real time      9.8307
    SETDIJ:  cpu time      0.0019: real time      0.0019
     EDDAV:  cpu time      3.9819: real time      3.9819
       DOS:  cpu time      0.0001: real time      0.0001
    --------------------------------------------
      LOOP:  cpu time     13.8145: real time     13.8145

 eigenvalue-minimisations  :    16
 total energy-change (2. order) :-0.3008475E-06  (-0.1904958E-06)
 number of electron       7.9999996 magnetization 
 augmentation part        0.6904787 magnetization 

 Free energy of the ion-electron system (eV)
  ---------------------------------------------------
  alpha Z        PSCENC =         0.02803141
  Ewald energy   TEWEN  =       121.87856729
  -Hartree energ DENC   =      -515.75820149
  -exchange      EXHF   =         0.00000000
  -V(xc)+E(xc)   XCENC  =        34.02855197
  PAW double counting   =       544.72172884     -546.80293210
  entropy T*S    EENTRO =        -0.00000000
  eigenvalues    EBANDS =      -109.68320811
  atomic energy  EATOM  =       457.35383389
  Solvation  Ediel_sol  =         0.00000000
  ---------------------------------------------------
  free energy    TOTEN  =       -14.23362830 eV

  energy without entropy =      -14.23362830  energy(sigma->0) =      -14.23362830


--------------------------------------------------------------------------------------------------------




 average (electrostatic) potential at core
  the test charge radii are     0.5201  0.7215
  (the norm of the test charge is              1.0000)
       1 -44.7124       2 -44.7116       3 -80.5686
 
 
 
 E-fermi :  -6.2655     XC(G=0):  -0.0830     alpha+bet : -0.0163

 Fermi energy:        -6.2655171961

 k-point     1 :       0.0000    0.0000    0.0000
  band No.  band energies     occupation 
      1     -25.2927      2.00000
      2     -13.0952      2.00000
      3      -9.2582      2.00000
      4      -7.1954      2.00000
      5      -0.9853      0.00000
      6       0.0310      0.00000
      7       0.2354      0.00000
      8       0.3220      0.00000


--------------------------------------------------------------------------------------------------------


 soft charge-density along one line, spin component           1
         0         1         2         3         4         5         6         7         8         9
 total charge-density along one line
 
 pseudopotential strength for first ion, spin component:           1
 -2.384  -4.117  -0.000   0.003  -0.000
 -4.117  -7.023  -0.000   0.009  -0.000
 -0.000  -0.000  -0.324  -0.000   0.000
  0.003   0.009  -0.000  -0.314  -0.000
 -0.000  -0.000   0.000  -0.000  -0.323
 total augmentation occupancy for first ion, spin component:           1
  3.740  -0.784   0.000  -0.720   0.018
 -0.784   0.216   0.000   0.146  -0.009
  0.000   0.000   0.041   0.000   0.000
 -0.720   0.146   0.000   0.139  -0.005
  0.018  -0.009   0.000  -0.005   0.027


------------------------ aborting loop because EDIFF is reached ----------------------------------------


    CHARGE:  cpu time      1.1674: real time      1.1674
    FORLOC:  cpu time      0.8586: real time      0.8586
    FORNL :  cpu time      0.4085: real time      0.4085
    STRESS:  cpu time      4.1665: real time      4.1665
    FORCOR:  cpu time     11.2820: real time     11.2820
    FORHAR:  cpu time      3.0523: real time      3.0527
    MIXING:  cpu time      0.5086: real time      0.5086
    OFIELD:  cpu time      0.0000: real time      0.0000

  FORCE on cell =-STRESS in cart. coord.  units (eV):
  Direction    XX          YY          ZZ          XY          YZ          ZX
  --------------------------------------------------------------------------------------
  Alpha Z     0.02803     0.02803     0.02803
  Ewald      62.99041   -21.81647    80.70465     0.00364     0.00029    25.44225
  Hartree   175.95683   160.81603   178.98589     0.00025    -0.00015     4.34294
  E(xc)     -36.06560   -36.42753   -36.00045    -0.00000     0.00000     0.09375
  Local    -322.45175  -248.18128  -338.21894    -0.00125    -0.00092   -22.62674
  n-local   -30.70025   -30.80685   -30.43402     0.00052    -0.00042     0.38370
  augment     6.41548     8.15841     6.09814    -0.00001     0.00002    -0.45626
  Kinetic   143.81892   168.22350   138.83098    -0.00151     0.00018    -7.18006
  Fock        0.00000     0.00000     0.00000     0.00000     0.00000     0.00000
  -------------------------------------------------------------------------------------
  Total      -0.00793    -0.00615    -0.00571     0.00000     0.00000    -0.00042
  in kB      -0.00159    -0.00123    -0.00114     0.00000     0.00000    -0.00008
  external pressure =       -0.00 kB  Pullay stress =        0.00 kB


 VOLUME and BASIS-vectors are now :
 -----------------------------------------------------------------------------
  energy-cutoff  :     1100.00
  volume of cell :     8000.00
      direct lattice vectors                 reciprocal lattice vectors
    20.000000000  0.000000000  0.000000000     0.050000000  0.000000000  0.000000000
     0.000000000 20.000000000  0.000000000     0.000000000  0.050000000  0.000000000
     0.000000000  0.000000000 20.000000000     0.000000000  0.000000000  0.050000000

  length of vectors
    20.000000000 20.000000000 20.000000000     0.050000000  0.050000000  0.050000000


 FORCES acting on ions
    electron-ion (+dipol)            ewald-force                    non-local-force                 convergence-correction
 -----------------------------------------------------------------------------------------------
   0.131E+00 -.855E-02 -.880E+02   -.179E+00 -.822E-03 0.963E+02   0.482E-01 -.203E-19 -.833E+01   -.779E-04 0.137E-06 -.927E-04
   0.832E+02 -.455E-02 0.288E+02   -.911E+02 -.388E-02 -.314E+02   0.788E+01 -.271E-19 0.269E+01   -.639E-04 -.917E-07 -.172E-03
   -.513E+02 -.117E+00 0.365E+02   0.912E+02 0.471E-02 -.649E+02   -.400E+02 -.434E-18 0.284E+02   -.356E-03 0.104E-06 -.112E-02
 -----------------------------------------------------------------------------------------------
   0.320E+02 -.130E+00 -.228E+02   0.000E+00 -.607E-17 0.000E+00   -.320E+02 -.481E-18 0.228E+02   -.498E-03 0.150E-06 -.138E-02
 
 
 POSITION                                       TOTAL-FORCE (eV/Angst)
 -----------------------------------------------------------------------------------
      5.09120      0.00007      1.41861        -0.000196      0.000000      0.001359
      4.20048      0.00004      0.16630        -0.000187      0.000000     -0.000286
      5.13058      0.00008      0.44770         0.000384     -0.000000     -0.001073
 -----------------------------------------------------------------------------------
    total drift:                                0.000296     -0.130277      0.000773


--------------------------------------------------------------------------------------------------------



  FREE ENERGIE OF THE ION-ELECTRON SYSTEM (eV)
  ---------------------------------------------------
  free  energy   TOTEN  =       -14.23362830 eV

  energy  without entropy=      -14.23362830  energy(sigma->0) =      -14.23362830
 
 d Force = 0.2947154E-03[-0.266E-05, 0.592E-03]  d Energy = 0.2983509E-03-0.364E-05
 d Force =-0.4334892E-01[-0.443E-01,-0.424E-01]  d Ewald  =-0.4334821E-01-0.706E-06


--------------------------------------------------------------------------------------------------------


    POTLOK:  cpu time      9.8355: real time      9.8356


--------------------------------------------------------------------------------------------------------




--------------------------------------------------------------------------------------------------------


    WAVPRE:  cpu time      3.3917: real time      3.3917
    FEWALD:  cpu time      0.0001: real time      0.0001
    ORTHCH:  cpu time      0.1677: real time      0.1678
     LOOP+:  cpu time    113.0689: real time    113.0701


--------------------------------------- Ionic step       10  -------------------------------------------




--------------------------------------- Iteration     10(   1)  ---------------------------------------


    POTLOK:  cpu time      9.8279: real time      9.8280
    SETDIJ:  cpu time      0.0019: real time      0.0019
     EDDAV:  cpu time      5.3278: real time      5.3278
       DOS:  cpu time      0.0001: real time      0.0004
    CHARGE:  cpu time      1.1711: real time      1.1711
    MIXING:  cpu time      0.4228: real time      0.4228
    --------------------------------------------
      LOOP:  cpu time     16.7515: real time     16.7520

 eigenvalue-minimisations  :    24
 total energy-change (2. order) :-0.3049511E-06  (-0.5082707E-07)
 number of electron       7.9999996 magnetization 
 augmentation part        0.6904732 magnetization 

 Broyden mixing:
  rms(total) = 0.68791E-04    rms(broyden)= 0.68791E-04
  rms(prec ) = 0.71379E-04
  weight for this iteration     100.00

 Free energy of the ion-electron system (eV)
  ---------------------------------------------------
  alpha Z        PSCENC =         0.02803141
  Ewald energy   TEWEN  =       121.87836920
  -Hartree energ DENC   =      -515.75831743
  -exchange      EXHF   =         0.00000000
  -V(xc)+E(xc)   XCENC  =        34.02856014
  PAW double counting   =       544.72354877     -546.80475018
  entropy T*S    EENTRO =        -0.00000000
  eigenvalues    EBANDS =      -109.68290410
  atomic energy  EATOM  =       457.35383389
  Solvation  Ediel_sol  =         0.00000000
  ---------------------------------------------------
  free energy    TOTEN  =       -14.23362830 eV

  energy without entropy =      -14.23362830  energy(sigma->0) =      -14.23362830


--------------------------------------------------------------------------------------------------------




--------------------------------------- Iteration     10(   2)  ---------------------------------------


    POTLOK:  cpu time      9.8520: real time      9.8520
    SETDIJ:  cpu time      0.0019: real time      0.0019
     EDDAV:  cpu time      5.3364: real time      5.3364
       DOS:  cpu time      0.0001: real time      0.0001
    --------------------------------------------
      LOOP:  cpu time     15.1903: real time     15.1907

 eigenvalue-minimisations  :    24
 total energy-change (2. order) :-0.4788160E-07  (-0.1463144E-08)
 number of electron       7.9999996 magnetization 
 augmentation part        0.6904732 magnetization 

 Free energy of the ion-electron system (eV)
  ---------------------------------------------------
  alpha Z        PSCENC =         0.02803141
  Ewald energy   TEWEN  =       121.87836920
  -Hartree energ DENC   =      -515.75824790
  -exchange      EXHF   =         0.00000000
  -V(xc)+E(xc)   XCENC  =        34.02855551
  PAW double counting   =       544.72287199     -546.80406349
  entropy T*S    EENTRO =        -0.00000000
  eigenvalues    EBANDS =      -109.68297896
  atomic energy  EATOM  =       457.35383389
  Solvation  Ediel_sol  =         0.00000000
  ---------------------------------------------------
  free energy    TOTEN  =       -14.23362835 eV

  energy without entropy =      -14.23362835  energy(sigma->0) =      -14.23362835


--------------------------------------------------------------------------------------------------------




 average (electrostatic) potential at core
  the test charge radii are     0.5201  0.7215
  (the norm of the test charge is              1.0000)
       1 -44.7120       2 -44.7119       3 -80.5686
 
 
 
 E-fermi :  -6.2653     XC(G=0):  -0.0826     alpha+bet : -0.0163

 Fermi energy:        -6.2653019777

 k-point     1 :       0.0000    0.0000    0.0000
  band No.  band energies     occupation 
      1     -25.2927      2.00000
      2     -13.0952      2.00000
      3      -9.2582      2.00000
      4      -7.1954      2.00000
      5      -0.9849      0.00000
      6       0.0313      0.00000
      7       0.2366      0.00000
      8       0.3223      0.00000


--------------------------------------------------------------------------------------------------------


 soft charge-density along one line, spin component           1
         0         1         2         3         4         5         6         7         8         9
 total charge-density along one line
 
 pseudopotential strength for first ion, spin component:           1
 -2.384  -4.117  -0.000   0.003  -0.000
 -4.117  -7.023  -0.000   0.009  -0.000
 -0.000  -0.000  -0.324  -0.000   0.000
  0.003   0.009  -0.000  -0.314  -0.000
 -0.000  -0.000   0.000  -0.000  -0.323
 total augmentation occupancy for first ion, spin component:           1
  3.740  -0.784   0.000  -0.720   0.018
 -0.784   0.216   0.000   0.146  -0.009
  0.000   0.000   0.041   0.000   0.000
 -0.720   0.146   0.000   0.139  -0.005
  0.018  -0.009   0.000  -0.005   0.027


------------------------ aborting loop because EDIFF is reached ----------------------------------------


    CHARGE:  cpu time      1.1690: real time      1.1691
    FORLOC:  cpu time      0.8594: real time      0.8594
    FORNL :  cpu time      0.4083: real time      0.4083
    STRESS:  cpu time      4.1689: real time      4.1690
    FORCOR:  cpu time     11.2808: real time     11.2808
    FORHAR:  cpu time      3.0481: real time      3.0482
    MIXING:  cpu time      0.4462: real time      0.4462
    OFIELD:  cpu time      0.0000: real time      0.0000

  FORCE on cell =-STRESS in cart. coord.  units (eV):
  Direction    XX          YY          ZZ          XY          YZ          ZX
  --------------------------------------------------------------------------------------
  Alpha Z     0.02803     0.02803     0.02803
  Ewald      62.99151   -21.81647    80.70336     0.00364     0.00029    25.44224
  Hartree   175.95670   160.81594   178.98583     0.00025    -0.00015     4.34286
  E(xc)     -36.06560   -36.42753   -36.00046    -0.00000     0.00000     0.09375
  Local    -322.45215  -248.18119  -338.21827    -0.00125    -0.00092   -22.62656
  n-local   -30.70033   -30.80682   -30.43387     0.00052    -0.00042     0.38366
  augment     6.41545     8.15839     6.09815    -0.00001     0.00002    -0.45626
  Kinetic   143.81887   168.22340   138.83088    -0.00151     0.00018    -7.17990
  Fock        0.00000     0.00000     0.00000     0.00000     0.00000     0.00000
  -------------------------------------------------------------------------------------
  Total      -0.00753    -0.00624    -0.00635     0.00000     0.00000    -0.00021
  in kB      -0.00151    -0.00125    -0.00127     0.00000     0.00000    -0.00004
  external pressure =       -0.00 kB  Pullay stress =        0.00 kB


 VOLUME and BASIS-vectors are now :
 -----------------------------------------------------------------------------
  energy-cutoff  :     1100.00
  volume of cell :     8000.00
      direct lattice vectors                 reciprocal lattice vectors
    20.000000000  0.000000000  0.000000000     0.050000000  0.000000000  0.000000000
     0.000000000 20.000000000  0.000000000     0.000000000  0.050000000  0.000000000
     0.000000000  0.000000000 20.000000000     0.000000000  0.000000000  0.050000000

  length of vectors
    20.000000000 20.000000000 20.000000000     0.050000000  0.050000000  0.050000000


 FORCES acting on ions
    electron-ion (+dipol)            ewald-force                    non-local-force                 convergence-correction
 -----------------------------------------------------------------------------------------------
   0.131E+00 -.855E-02 -.880E+02   -.179E+00 -.822E-03 0.963E+02   0.481E-01 -.678E-20 -.833E+01   -.205E-04 0.152E-07 -.871E-04
   0.832E+02 -.455E-02 0.288E+02   -.911E+02 -.388E-02 -.314E+02   0.788E+01 -.271E-19 0.269E+01   -.684E-04 -.108E-07 -.722E-04
   -.513E+02 -.117E+00 0.365E+02   0.912E+02 0.471E-02 -.649E+02   -.400E+02 -.867E-18 0.284E+02   0.384E-03 0.343E-07 0.499E-03
 -----------------------------------------------------------------------------------------------
   0.320E+02 -.130E+00 -.228E+02   0.000E+00 -.520E-17 0.142E-13   -.320E+02 -.901E-18 0.228E+02   0.295E-03 0.386E-07 0.340E-03
 
 
 POSITION                                       TOTAL-FORCE (eV/Angst)
 -----------------------------------------------------------------------------------
      5.09120      0.00007      1.41861        -0.000120      0.000000      0.000838
      4.20049      0.00004      0.16630        -0.000644      0.000000     -0.000368
      5.13057      0.00008      0.44770         0.000764     -0.000000     -0.000470
 -----------------------------------------------------------------------------------
    total drift:                                0.000318     -0.130277      0.000673


--------------------------------------------------------------------------------------------------------



  FREE ENERGIE OF THE ION-ELECTRON SYSTEM (eV)
  ---------------------------------------------------
  free  energy   TOTEN  =       -14.23362835 eV

  energy  without entropy=      -14.23362835  energy(sigma->0) =      -14.23362835
 
 d Force = 0.6785412E-08[ 0.169E-08, 0.119E-07]  d Energy = 0.5198513E-07-0.452E-07
 d Force = 0.1980878E-03[ 0.198E-03, 0.198E-03]  d Ewald  = 0.1980877E-03 0.219E-10


--------------------------------------------------------------------------------------------------------


    POTLOK:  cpu time      9.8683: real time      9.8683


--------------------------------------------------------------------------------------------------------




--------------------------------------------------------------------------------------------------------


  
 reached required accuracy - stopping structural energy minimisation
 writing wavefunctions
     LOOP+:  cpu time     63.3389: real time     63.3399
    4ORBIT:  cpu time      0.0000: real time      0.0000

 total amount of memory used by VASP MPI-rank0  3479136. kBytes
=======================================================================

   base      :      30000. kBytes
   nonl-proj :     116712. kBytes
   fftplans  :    1163968. kBytes
   grid      :    2083563. kBytes
   one-center:          9. kBytes
   wavefun   :      84884. kBytes
 
  
  
 General timing and accounting informations for this job:
 ========================================================
  
                  Total CPU time used (sec):     1878.807
                            User time (sec):     1767.671
                          System time (sec):      111.135
                         Elapsed time (sec):     1879.189
  
                   Maximum memory used (kb):     5506548.
                   Average memory used (kb):          N/A
  
                          Minor page faults:    111440930
                          Major page faults:            1
                 Voluntary context switches:          565
