 vasp.6.4.1 05Apr23 (build Jun 06 2023 10:26:43) complex                        
  
 executed on             LinuxIFC date 2023.06.30  12:20:32
 running    1 mpi-ranks, on    1 nodes
 distrk:  each k-point on    1 cores,    1 groups
 distr:  one band on NCORE=   1 cores,    1 groups


--------------------------------------------------------------------------------------------------------


 INCAR:
   SYSTEM = BN
   GGA = PE
   ISMEAR = 0
   EDIFF = 1.0E-6
   EDIFFG = -1.0E-3
   KPAR = 1
   NCSHMEM = -1
   PREC = Normal
   NCORE = 4
   IBRION = 2
   POTIM = 0.5
   NSW = 101
   ENCUT = 1200

 POTCAR:    PAW_PBE H 15Jun2001                   
 POTCAR:    PAW_PBE O 08Apr2002                   
 -----------------------------------------------------------------------------
|                                                                             |
|           W    W    AA    RRRRR   N    N  II  N    N   GGGG   !!!           |
|           W    W   A  A   R    R  NN   N  II  NN   N  G    G  !!!           |
|           W    W  A    A  R    R  N N  N  II  N N  N  G       !!!           |
|           W WW W  AAAAAA  RRRRR   N  N N  II  N  N N  G  GGG   !            |
|           WW  WW  A    A  R   R   N   NN  II  N   NN  G    G                |
|           W    W  A    A  R    R  N    N  II  N    N   GGGG   !!!           |
|                                                                             |
|     The value NCORE = 4 specified in the INCAR file was overwritten,        |
|     because it was not compatible with the 1 processes available:           |
|     NCORE = 1                                                               |
|     was used instead, please check that this makes sense for your           |
|     machine.                                                                |
|                                                                             |
 -----------------------------------------------------------------------------

 POTCAR:    PAW_PBE H 15Jun2001                   
   VRHFIN =H: ultrasoft test                                                                        
   LEXCH  = PE                                                                                      
   EATOM  =    12.4884 eV,    0.9179 Ry                                                             
                                                                                                    
   TITEL  = PAW_PBE H 15Jun2001                                                                     
   LULTRA =        F    use ultrasoft PP ?                                                          
   IUNSCR =        0    unscreen: 0-lin 1-nonlin 2-no                                               
   RPACOR =    0.000    partial core radius                                                         
   POMASS =    1.000; ZVAL   =    1.000    mass and valenz                                          
   RCORE  =    1.100    outmost cutoff radius                                                       
   RWIGS  =    0.700; RWIGS  =    0.370    wigner-seitz radius (au A)                               
   ENMAX  =  250.000; ENMIN  =  200.000 eV                                                          
   RCLOC  =    0.701    cutoff for local pot                                                        
   LCOR   =        T    correct aug charges                                                         
   LPAW   =        T    paw PP                                                                      
   EAUG   =  400.000                                                                                
   RMAX   =    1.123    core radius for proj-oper                                                   
   RAUG   =    1.200    factor for augmentation sphere                                              
   RDEP   =    1.112    radius for radial grids                                                     
   RDEPT  =    0.926    core radius for aug-charge                                                  
                                                                                                    
   Atomic configuration                                                                             
    2 entries                                                                                       
     n  l   j            E        occ.                                                              
     1  0  0.50        -6.4927   1.0000                                                             
     2  1  0.50        -3.4015   0.0000                                                             
   Description                                                                                      
     l       E           TYP  RCUT    TYP  RCUT                                                     
     0     -6.4927494     23  1.100                                                                 
     0      6.8029130     23  1.100                                                                 
     1     -4.0817478     23  1.100                                                                 
  local pseudopotential read in
  atomic valenz-charges read in
  non local Contribution for L=           0  read in
    real space projection operators read in
  non local Contribution for L=           0  read in
    real space projection operators read in
  non local Contribution for L=           1  read in
    real space projection operators read in
    PAW grid and wavefunctions read in
 
   number of l-projection  operators is LMAX  =           3
   number of lm-projection operators is LMMAX =           5
 
 POTCAR:    PAW_PBE O 08Apr2002                   
   VRHFIN =O: s2p4                                                                                  
   LEXCH  = PE                                                                                      
   EATOM  =   432.3788 eV,   31.7789 Ry                                                             
                                                                                                    
   TITEL  = PAW_PBE O 08Apr2002                                                                     
   LULTRA =        F    use ultrasoft PP ?                                                          
   IUNSCR =        1    unscreen: 0-lin 1-nonlin 2-no                                               
   RPACOR =    1.200    partial core radius                                                         
   POMASS =   16.000; ZVAL   =    6.000    mass and valenz                                          
   RCORE  =    1.520    outmost cutoff radius                                                       
   RWIGS  =    1.550; RWIGS  =    0.820    wigner-seitz radius (au A)                               
   ENMAX  =  400.000; ENMIN  =  300.000 eV                                                          
   ICORE  =        2    local potential                                                             
   LCOR   =        T    correct aug charges                                                         
   LPAW   =        T    paw PP                                                                      
   EAUG   =  605.392                                                                                
   DEXC   =    0.000                                                                                
   RMAX   =    1.553    core radius for proj-oper                                                   
   RAUG   =    1.300    factor for augmentation sphere                                              
   RDEP   =    1.550    radius for radial grids                                                     
   RDEPT  =    1.329    core radius for aug-charge                                                  
                                                                                                    
   Atomic configuration                                                                             
    4 entries                                                                                       
     n  l   j            E        occ.                                                              
     1  0  0.50      -514.6923   2.0000                                                             
     2  0  0.50       -23.9615   2.0000                                                             
     2  1  0.50        -9.0305   4.0000                                                             
     3  2  1.50        -9.5241   0.0000                                                             
   Description                                                                                      
     l       E           TYP  RCUT    TYP  RCUT                                                     
     0    -23.9615318     23  1.200                                                                 
     0     -9.5240782     23  1.200                                                                 
     1     -9.0304911     23  1.520                                                                 
     1      8.1634956     23  1.520                                                                 
     2     -9.5240782      7  1.500                                                                 
  local pseudopotential read in
  partial core-charges read in
  partial kinetic energy density read in
  kinetic energy density of atom read in
  atomic valenz-charges read in
  non local Contribution for L=           0  read in
    real space projection operators read in
  non local Contribution for L=           0  read in
    real space projection operators read in
  non local Contribution for L=           1  read in
    real space projection operators read in
  non local Contribution for L=           1  read in
    real space projection operators read in
    PAW grid and wavefunctions read in
 
   number of l-projection  operators is LMAX  =           4
   number of lm-projection operators is LMMAX =           8
 
  PAW_PBE H 15Jun2001                   :
 energy of atom  1       EATOM=  -12.4884
 kinetic energy error for atom=    0.0000 (will be added to EATOM!!)
  PAW_PBE O 08Apr2002                   :
 energy of atom  2       EATOM= -432.3788
 kinetic energy error for atom=    0.0010 (will be added to EATOM!!)
 
 
 POSCAR: Water molecule
  positions in cartesian coordinates
  No initial velocities read in
 exchange correlation table for  LEXCH =        8
   RHO(1)=    0.500       N(1)  =     2000
   RHO(2)=  100.500       N(2)  =     4000
 


--------------------------------------------------------------------------------------------------------


 ion  position               nearest neighbor table
   1  0.255  0.000  0.072-   3 1.00
   2  0.209  0.000  0.007-   3 1.00
   3  0.257  0.000  0.022-   1 1.00   2 1.00
 
  LATTYP: Found a simple cubic cell.
 ALAT       =    20.0000000000
  
  Lattice vectors:
  
 A1 = (  20.0000000000,   0.0000000000,   0.0000000000)
 A2 = (   0.0000000000,  20.0000000000,   0.0000000000)
 A3 = (   0.0000000000,   0.0000000000,  20.0000000000)


Analysis of symmetry for initial positions (statically):
=====================================================================
 Subroutine PRICEL returns:
 Original cell was already a primitive cell.
 

 Routine SETGRP: Setting up the symmetry group for a 
 simple cubic supercell.


 Subroutine GETGRP returns: Found  2 space group operations
 (whereof  2 operations were pure point group operations)
 out of a pool of 48 trial point group operations.


The static configuration has the point symmetry C_1h.


Analysis of symmetry for dynamics (positions and initial velocities):
=====================================================================
 Subroutine PRICEL returns:
 Original cell was already a primitive cell.
 

 Routine SETGRP: Setting up the symmetry group for a 
 simple cubic supercell.


 Subroutine GETGRP returns: Found  2 space group operations
 (whereof  2 operations were pure point group operations)
 out of a pool of 48 trial point group operations.


The dynamic configuration has the point symmetry C_1h.


 Subroutine INISYM returns: Found  2 space group operations
 (whereof  2 operations are pure point group operations),
 and found     1 'primitive' translations


----------------------------------------------------------------------------------------

                                     Primitive cell                                     

  volume of cell :    8000.0000

  direct lattice vectors                    reciprocal lattice vectors
    20.000000000  0.000000000  0.000000000     0.050000000  0.000000000  0.000000000
     0.000000000 20.000000000  0.000000000     0.000000000  0.050000000  0.000000000
     0.000000000  0.000000000 20.000000000     0.000000000  0.000000000  0.050000000

  length of vectors
    20.000000000 20.000000000 20.000000000     0.050000000  0.050000000  0.050000000

  position of ions in fractional coordinates (direct lattice)
     0.255395500  0.000003500  0.072266000
     0.209022500  0.000002000  0.007084000
     0.256695000  0.000004000  0.022280500

  ion indices of the primitive-cell ions
   primitive index   ion index
                 1           1
                 2           2
                 3           3

----------------------------------------------------------------------------------------

 
 
 KPOINTS: Automatically generated mesh            

Automatic generation of k-mesh.
 Grid dimensions read from file:
 generate k-points for:    1    1    1

 Generating k-lattice:

  Cartesian coordinates                     Fractional coordinates (reciprocal lattice)
     0.050000000  0.000000000  0.000000000     1.000000000  0.000000000  0.000000000
     0.000000000  0.050000000  0.000000000     0.000000000  1.000000000  0.000000000
     0.000000000  0.000000000  0.050000000     0.000000000  0.000000000  1.000000000

  Length of vectors
     0.050000000  0.050000000  0.050000000

  Shift w.r.t. Gamma in fractional coordinates (k-lattice)
     0.000000000  0.000000000  0.000000000

 
 Subroutine IBZKPT returns following result:
 ===========================================
 
 Found      1 irreducible k-points:
 
 Following reciprocal coordinates:
            Coordinates               Weight
  0.000000  0.000000  0.000000      1.000000
 
 Following cartesian coordinates:
            Coordinates               Weight
  0.000000  0.000000  0.000000      1.000000
 


--------------------------------------------------------------------------------------------------------




 Dimension of arrays:
   k-points           NKPTS =      1   k-points in BZ     NKDIM =      1   number of bands    NBANDS=      8
   number of dos      NEDOS =    301   number of ions     NIONS =      3
   non local maximal  LDIM  =      4   non local SUM 2l+1 LMDIM =      8
   total plane-waves  NPLWV = ******
   max r-space proj   IRMAX =      1   max aug-charges    IRDMAX=   9656
   dimension x,y,z NGX =   180 NGY =  180 NGZ =  180
   dimension x,y,z NGXF=   360 NGYF=  360 NGZF=  360
   support grid    NGXF=   360 NGYF=  360 NGZF=  360
   ions per type =               2   1
   NGX,Y,Z   is equivalent  to a cutoff of  14.96, 14.96, 14.96 a.u.
   NGXF,Y,Z  is equivalent  to a cutoff of  29.92, 29.92, 29.92 a.u.

 SYSTEM =  BN                                      
 POSCAR =  Water molecule                          

 Startparameter for this run:
   NWRITE =      2    write-flag & timer
   PREC   = normal    normal or accurate (medium, high low for compatibility)
   ISTART =      1    job   : 0-new  1-cont  2-samecut
   ICHARG =      0    charge: 1-file 2-atom 10-const
   ISPIN  =      1    spin polarized calculation?
   LNONCOLLINEAR =      F non collinear calculations
   LSORBIT =      F    spin-orbit coupling
   INIWAV =      1    electr: 0-lowe 1-rand  2-diag
   LASPH  =      F    aspherical Exc in radial PAW
 Electronic Relaxation 1
   ENCUT  = 1200.0 eV  88.20 Ry    9.39 a.u.  56.49 56.49 56.49*2*pi/ulx,y,z
   ENINI  = 1200.0     initial cutoff
   ENAUG  =  605.4 eV  augmentation charge cutoff
   NELM   =     60;   NELMIN=  2; NELMDL=  0     # of ELM steps 
   EDIFF  = 0.1E-05   stopping-criterion for ELM
   LREAL  =      F    real-space projection
   NLSPLINE    = F    spline interpolate recip. space projectors
   LCOMPAT=      F    compatible to vasp.4.4
   GGA_COMPAT  = T    GGA compatible to vasp.4.4-vasp.4.6
   LMAXPAW     = -100 max onsite density
   LMAXMIX     =    2 max onsite mixed and CHGCAR
   VOSKOWN=      0    Vosko Wilk Nusair interpolation
   ROPT   =    0.00000   0.00000
 Ionic relaxation
   EDIFFG = -.1E-02   stopping-criterion for IOM
   NSW    =    101    number of steps for IOM
   NBLOCK =      1;   KBLOCK =    101    inner block; outer block 
   IBRION =      2    ionic relax: 0-MD 1-quasi-New 2-CG
   NFREE  =      1    steps in history (QN), initial steepest desc. (CG)
   ISIF   =      2    stress and relaxation
   IWAVPR =     11    prediction:  0-non 1-charg 2-wave 3-comb
   ISYM   =      2    0-nonsym 1-usesym 2-fastsym
   LCORR  =      T    Harris-Foulkes like correction to forces

   POTIM  = 0.5000    time-step for ionic-motion
   TEIN   =    0.0    initial temperature
   TEBEG  =    0.0;   TEEND  =   0.0 temperature during run
   SMASS  =  -3.00    Nose mass-parameter (am)
   estimated Nose-frequenzy (Omega)   =  0.10E-29 period in steps = 0.13E+47 mass=  -0.914E-26a.u.
   SCALEE = 1.0000    scale energy and forces
   NPACO  =    256;   APACO  = 10.0  distance and # of slots for P.C.
   PSTRESS=    0.0 pullay stress

  Mass of Ions in am
   POMASS =   1.00 16.00
  Ionic Valenz
   ZVAL   =   1.00  6.00
  Atomic Wigner-Seitz radii
   RWIGS  =  -1.00 -1.00
  virtual crystal weights 
   VCA    =   1.00  1.00
   NELECT =       8.0000    total number of electrons
   NUPDOWN=      -1.0000    fix difference up-down

 DOS related values:
   EMIN   =  10.00;   EMAX   =-10.00  energy-range for DOS
   EFERMI =   0.00;   METHOD = LEGACY      
   ISMEAR =     0;   SIGMA  =   0.20  broadening in eV -4-tet -1-fermi 0-gaus

 Electronic relaxation 2 (details)
   IALGO  =     38    algorithm
   LDIAG  =      T    sub-space diagonalisation (order eigenvalues)
   LSUBROT=      F    optimize rotation matrix (better conditioning)
   TURBO    =      0    0=normal 1=particle mesh
   IRESTART =      0    0=no restart 2=restart with 2 vectors
   NREBOOT  =      0    no. of reboots
   NMIN     =      0    reboot dimension
   EREF     =   0.00    reference energy to select bands
   IMIX   =      4    mixing-type and parameters
     AMIX     =   0.40;   BMIX     =  1.00
     AMIX_MAG =   1.60;   BMIX_MAG =  1.00
     AMIN     =   0.10
     WC   =   100.;   INIMIX=   1;  MIXPRE=   1;  MAXMIX= -45

 Intra band minimization:
   WEIMIN = 0.0010     energy-eigenvalue tresh-hold
   EBREAK =  0.31E-07  absolut break condition
   DEPER  =   0.30     relativ break condition  

   TIME   =   0.40     timestep for ELM

  volume/ion in A,a.u.               =    2666.67     17995.55
  Fermi-wavevector in a.u.,A,eV,Ry     =   0.163710  0.309367  0.364649  0.026801
  Thomas-Fermi vector in A             =   0.862763
 
 Write flags
   LWAVE        =      T    write WAVECAR
   LDOWNSAMPLE  =      F    k-point downsampling of WAVECAR
   LCHARG       =      T    write CHGCAR
   LVTOT        =      F    write LOCPOT, total local potential
   LVHAR        =      F    write LOCPOT, Hartree potential only
   LELF         =      F    write electronic localiz. function (ELF)
   LORBIT       =      0    0 simple, 1 ext, 2 COOP (PROOUT), +10 PAW based schemes


 Dipole corrections
   LMONO  =      F    monopole corrections only (constant potential shift)
   LDIPOL =      F    correct potential (dipole corrections)
   IDIPOL =      0    1-x, 2-y, 3-z, 4-all directions 
   EPSILON=  1.0000000 bulk dielectric constant

 Exchange correlation treatment:
   GGA     =    PE    GGA type
   LEXCH   =     8    internal setting for exchange type
   LIBXC   =     F    Libxc                    
   VOSKOWN =     0    Vosko Wilk Nusair interpolation
   LHFCALC =     F    Hartree Fock is set to
   LHFONE  =     F    Hartree Fock one center treatment
   AEXX    =    0.0000 exact exchange contribution

 Linear response parameters
   LEPSILON=     F    determine dielectric tensor
   LRPA    =     F    only Hartree local field effects (RPA)
   LNABLA  =     F    use nabla operator in PAW spheres
   LVEL    =     F    velocity operator in full k-point grid
   CSHIFT  =0.1000    complex shift for real part using Kramers Kronig
   OMEGAMAX=  -1.0    maximum frequency
   DEG_THRESHOLD= 0.2000000E-02 threshold for treating states as degnerate
   RTIME   =   -0.100 relaxation time in fs
  (WPLASMAI=    0.000 imaginary part of plasma frequency in eV, 0.658/RTIME)
   DFIELD  = 0.0000000 0.0000000 0.0000000 field for delta impulse in time
 
  Optional k-point grid parameters
   LKPOINTS_OPT  =     F    use optional k-point grid
   KPOINTS_OPT_MODE=     1    mode for optional k-point grid
 
 Orbital magnetization related:
   ORBITALMAG=     F  switch on orbital magnetization
   LCHIMAG   =     F  perturbation theory with respect to B field
   DQ        =  0.001000  dq finite difference perturbation B field
   LLRAUG    =     F  two centre corrections for induced B field
   LBONE     =     F  B-component reconstruction in AE one-centre
   LVGVCALC  =     T  calculate vGv susceptibility
   LVGVAPPL  =     F  apply vGv susceptibility instead of pGv for G=0

 Random number generation:
   RANDOM_GENERATOR = DEFAULT
   PCG_SEED         = not used


--------------------------------------------------------------------------------------------------------


 conjugate gradient relaxation of ions
 charge density and potential will be updated during run
 non-spin polarized calculation
 Variant of blocked Davidson
 Davidson routine will perform the subspace rotation
 perform sub-space diagonalisation
    after iterative eigenvector-optimisation
 modified Broyden-mixing scheme, WC =      100.0
 initial mixing is a Kerker type mixing with AMIX =  0.4000 and BMIX =      1.0000
 Hartree-type preconditioning will be used
 using additional bands            4
 reciprocal scheme for non local part
 use partial core corrections
 calculate Harris-corrections to forces 
   (improved forces if not selfconsistent)
 use gradient corrections 
 use of overlap-Matrix (Vanderbilt PP)
 Gauss-broadening in eV      SIGMA  =   0.20


--------------------------------------------------------------------------------------------------------


  energy-cutoff  :     1200.00
  volume of cell :     8000.00
      direct lattice vectors                 reciprocal lattice vectors
    20.000000000  0.000000000  0.000000000     0.050000000  0.000000000  0.000000000
     0.000000000 20.000000000  0.000000000     0.000000000  0.050000000  0.000000000
     0.000000000  0.000000000 20.000000000     0.000000000  0.000000000  0.050000000

  length of vectors
    20.000000000 20.000000000 20.000000000     0.050000000  0.050000000  0.050000000


 
 old parameters found on file WAVECAR:
  energy-cutoff  :     1100.00
  volume of cell :     8000.00
      direct lattice vectors                 reciprocal lattice vectors
    20.000000000  0.000000000  0.000000000     0.050000000  0.000000000  0.000000000
     0.000000000 20.000000000  0.000000000     0.000000000  0.050000000  0.000000000
     0.000000000  0.000000000 20.000000000     0.000000000  0.000000000  0.050000000

  length of vectors

 
 k-points in units of 2pi/SCALE and weight: Automatically generated mesh            
   0.00000000  0.00000000  0.00000000       1.000
 
 k-points in reciprocal lattice and weights: Automatically generated mesh            
   0.00000000  0.00000000  0.00000000       1.000
 
 position of ions in fractional coordinates (direct lattice) 
   0.25539550  0.00000350  0.07226600
   0.20902250  0.00000200  0.00708400
   0.25669500  0.00000400  0.02228050
 
 position of ions in cartesian coordinates  (Angst):
   5.10791000  0.00007000  1.44532000
   4.18045000  0.00004000  0.14168000
   5.13390000  0.00008000  0.44561000
 


--------------------------------------------------------------------------------------------------------


 k-point   1 :   0.0000 0.0000 0.0000  plane waves:  755285

 maximum and minimum number of plane-waves per node :    755285   755285

 maximum number of plane-waves:    755285
 maximum index in each direction: 
   IXMAX=   56   IYMAX=   56   IZMAX=   56
   IXMIN=  -56   IYMIN=  -56   IZMIN=  -56


 serial   3D FFT for wavefunctions
 parallel 3D FFT for charge:
    minimum data exchange during FFTs selected (reduces bandwidth)


 total amount of memory used by VASP MPI-rank0  4712147. kBytes
=======================================================================

   base      :      30000. kBytes
   nonl-proj :     132930. kBytes
   fftplans  :    1595628. kBytes
   grid      :    2856902. kBytes
   one-center:          9. kBytes
   wavefun   :      96678. kBytes
 
     INWAV:  cpu time      0.1858: real time      0.1858
 Broyden mixing: mesh for mixing (old mesh)
   NGX =113   NGY =113   NGZ =113
  (NGX  =360   NGY  =360   NGZ  =360)
  gives a total of ****** points

 charge density for first step will be calculated from the start-wavefunctions


--------------------------------------------------------------------------------------------------------


 Maximum index for augmentation-charges         9144 (set IRDMAX)


--------------------------------------------------------------------------------------------------------


 initial charge from wavefunction
 First call to EWALD:  gamma=   0.089
 Maximum number of real-space cells 3x 3x 3
 Maximum number of reciprocal cells 3x 3x 3

    FEWALD:  cpu time      0.0008: real time      0.0008


--------------------------------------- Ionic step        1  -------------------------------------------




--------------------------------------- Iteration      1(   1)  ---------------------------------------


    POTLOK:  cpu time     15.5401: real time     15.5402
    SETDIJ:  cpu time      0.0020: real time      0.0020
     EDDAV:  cpu time      5.2147: real time      5.2150
       DOS:  cpu time      0.0001: real time      0.0001
    CHARGE:  cpu time      1.6903: real time      1.6903
    MIXING:  cpu time      0.5660: real time      0.5660
    --------------------------------------------
      LOOP:  cpu time     23.0133: real time     23.0136

 eigenvalue-minimisations  :    16
 total energy-change (2. order) :-0.1423156E+02  (-0.1527821E+00)
 number of electron       8.0000000 magnetization 
 augmentation part        0.6684036 magnetization 

 Broyden mixing:
  rms(total) = 0.11421E+00    rms(broyden)= 0.11421E+00
  rms(prec ) = 0.12354E+00
  weight for this iteration     100.00

 Free energy of the ion-electron system (eV)
  ---------------------------------------------------
  alpha Z        PSCENC =         0.02803141
  Ewald energy   TEWEN  =       116.41630449
  -Hartree energ DENC   =      -515.54714621
  -exchange      EXHF   =         0.00000000
  -V(xc)+E(xc)   XCENC  =        34.01798448
  PAW double counting   =       540.54414035     -542.60455827
  entropy T*S    EENTRO =        -0.00000000
  eigenvalues    EBANDS =      -104.44082074
  atomic energy  EATOM  =       457.35450057
  Solvation  Ediel_sol  =         0.00000000
  ---------------------------------------------------
  free energy    TOTEN  =       -14.23156391 eV

  energy without entropy =      -14.23156391  energy(sigma->0) =      -14.23156391


--------------------------------------------------------------------------------------------------------




--------------------------------------- Iteration      1(   2)  ---------------------------------------


    POTLOK:  cpu time     13.9263: real time     13.9264
    SETDIJ:  cpu time      0.0020: real time      0.0020
     EDDAV:  cpu time      6.6968: real time      6.6968
       DOS:  cpu time      0.0001: real time      0.0001
    CHARGE:  cpu time      1.6094: real time      1.6094
    MIXING:  cpu time      0.6013: real time      0.6013
    --------------------------------------------
      LOOP:  cpu time     22.8359: real time     22.8360

 eigenvalue-minimisations  :    24
 total energy-change (2. order) : 0.3395538E-01  (-0.1120433E-01)
 number of electron       8.0000000 magnetization 
 augmentation part        0.6775525 magnetization 

 Broyden mixing:
  rms(total) = 0.47243E-01    rms(broyden)= 0.47243E-01
  rms(prec ) = 0.50554E-01
  weight for this iteration     100.00

 eigenvalues of (default mixing * dielectric matrix)
  average eigenvalue GAMMA=   1.3007
  1.3007

 Free energy of the ion-electron system (eV)
  ---------------------------------------------------
  alpha Z        PSCENC =         0.02803141
  Ewald energy   TEWEN  =       116.41630449
  -Hartree energ DENC   =      -512.73746776
  -exchange      EXHF   =         0.00000000
  -V(xc)+E(xc)   XCENC  =        33.86710788
  PAW double counting   =       532.78816025     -534.83127915
  entropy T*S    EENTRO =        -0.00000000
  eigenvalues    EBANDS =      -107.08296623
  atomic energy  EATOM  =       457.35450057
  Solvation  Ediel_sol  =         0.00000000
  ---------------------------------------------------
  free energy    TOTEN  =       -14.19760853 eV

  energy without entropy =      -14.19760853  energy(sigma->0) =      -14.19760853


--------------------------------------------------------------------------------------------------------




--------------------------------------- Iteration      1(   3)  ---------------------------------------


    POTLOK:  cpu time     13.8029: real time     13.8029
    SETDIJ:  cpu time      0.0020: real time      0.0020
     EDDAV:  cpu time      6.7004: real time      6.7005
       DOS:  cpu time      0.0001: real time      0.0001
    CHARGE:  cpu time      1.6082: real time      1.6082
    MIXING:  cpu time      0.6195: real time      0.6195
    --------------------------------------------
      LOOP:  cpu time     22.7331: real time     22.7332

 eigenvalue-minimisations  :    24
 total energy-change (2. order) : 0.5632384E-02  (-0.1339090E-02)
 number of electron       8.0000000 magnetization 
 augmentation part        0.6798222 magnetization 

 Broyden mixing:
  rms(total) = 0.20098E-01    rms(broyden)= 0.20098E-01
  rms(prec ) = 0.21239E-01
  weight for this iteration     100.00

 eigenvalues of (default mixing * dielectric matrix)
  average eigenvalue GAMMA=   1.5730
  1.2798  1.8661

 Free energy of the ion-electron system (eV)
  ---------------------------------------------------
  alpha Z        PSCENC =         0.02803141
  Ewald energy   TEWEN  =       116.41630449
  -Hartree energ DENC   =      -511.90241638
  -exchange      EXHF   =         0.00000000
  -V(xc)+E(xc)   XCENC  =        33.82683674
  PAW double counting   =       529.24365497     -531.28992815
  entropy T*S    EENTRO =        -0.00000000
  eigenvalues    EBANDS =      -107.86895979
  atomic energy  EATOM  =       457.35450057
  Solvation  Ediel_sol  =         0.00000000
  ---------------------------------------------------
  free energy    TOTEN  =       -14.19197615 eV

  energy without entropy =      -14.19197615  energy(sigma->0) =      -14.19197615


--------------------------------------------------------------------------------------------------------




--------------------------------------- Iteration      1(   4)  ---------------------------------------


    POTLOK:  cpu time     13.6685: real time     13.6686
    SETDIJ:  cpu time      0.0020: real time      0.0020
     EDDAV:  cpu time      6.6954: real time      6.6955
       DOS:  cpu time      0.0001: real time      0.0001
    CHARGE:  cpu time      1.6088: real time      1.6089
    MIXING:  cpu time      0.6399: real time      0.6399
    --------------------------------------------
      LOOP:  cpu time     22.6147: real time     22.6149

 eigenvalue-minimisations  :    24
 total energy-change (2. order) : 0.5592969E-03  (-0.3781067E-03)
 number of electron       8.0000000 magnetization 
 augmentation part        0.6780430 magnetization 

 Broyden mixing:
  rms(total) = 0.52941E-02    rms(broyden)= 0.52941E-02
  rms(prec ) = 0.58759E-02
  weight for this iteration     100.00

 eigenvalues of (default mixing * dielectric matrix)
  average eigenvalue GAMMA=   1.4699
  2.1543  1.1277  1.1277

 Free energy of the ion-electron system (eV)
  ---------------------------------------------------
  alpha Z        PSCENC =         0.02803141
  Ewald energy   TEWEN  =       116.41630449
  -Hartree energ DENC   =      -511.82947988
  -exchange      EXHF   =         0.00000000
  -V(xc)+E(xc)   XCENC  =        33.82708097
  PAW double counting   =       527.97615499     -530.02994350
  entropy T*S    EENTRO =        -0.00000000
  eigenvalues    EBANDS =      -107.93406591
  atomic energy  EATOM  =       457.35450057
  Solvation  Ediel_sol  =         0.00000000
  ---------------------------------------------------
  free energy    TOTEN  =       -14.19141685 eV

  energy without entropy =      -14.19141685  energy(sigma->0) =      -14.19141685


--------------------------------------------------------------------------------------------------------




--------------------------------------- Iteration      1(   5)  ---------------------------------------


    POTLOK:  cpu time     13.6349: real time     13.6350
    SETDIJ:  cpu time      0.0020: real time      0.0020
     EDDAV:  cpu time      8.4193: real time      8.4193
       DOS:  cpu time      0.0001: real time      0.0001
    CHARGE:  cpu time      1.6109: real time      1.6109
    MIXING:  cpu time      0.6606: real time      0.6606
    --------------------------------------------
      LOOP:  cpu time     24.3277: real time     24.3279

 eigenvalue-minimisations  :    32
 total energy-change (2. order) :-0.3553432E-04  (-0.7371921E-04)
 number of electron       8.0000000 magnetization 
 augmentation part        0.6792890 magnetization 

 Broyden mixing:
  rms(total) = 0.33526E-02    rms(broyden)= 0.33526E-02
  rms(prec ) = 0.36163E-02
  weight for this iteration     100.00

 eigenvalues of (default mixing * dielectric matrix)
  average eigenvalue GAMMA=   1.5630
  2.3997  1.9225  1.1562  0.7735

 Free energy of the ion-electron system (eV)
  ---------------------------------------------------
  alpha Z        PSCENC =         0.02803141
  Ewald energy   TEWEN  =       116.41630449
  -Hartree energ DENC   =      -511.61033747
  -exchange      EXHF   =         0.00000000
  -V(xc)+E(xc)   XCENC  =        33.81636820
  PAW double counting   =       527.57088177     -529.62219484
  entropy T*S    EENTRO =        -0.00000000
  eigenvalues    EBANDS =      -108.14500651
  atomic energy  EATOM  =       457.35450057
  Solvation  Ediel_sol  =         0.00000000
  ---------------------------------------------------
  free energy    TOTEN  =       -14.19145239 eV

  energy without entropy =      -14.19145239  energy(sigma->0) =      -14.19145239


--------------------------------------------------------------------------------------------------------




--------------------------------------- Iteration      1(   6)  ---------------------------------------


    POTLOK:  cpu time     13.5714: real time     13.5715
    SETDIJ:  cpu time      0.0020: real time      0.0020
     EDDAV:  cpu time      8.4175: real time      8.4176
       DOS:  cpu time      0.0001: real time      0.0001
    CHARGE:  cpu time      1.6120: real time      1.6121
    MIXING:  cpu time      0.6976: real time      0.6977
    --------------------------------------------
      LOOP:  cpu time     24.3006: real time     24.3009

 eigenvalue-minimisations  :    32
 total energy-change (2. order) :-0.9663122E-04  (-0.3267581E-05)
 number of electron       8.0000000 magnetization 
 augmentation part        0.6791993 magnetization 

 Broyden mixing:
  rms(total) = 0.11161E-02    rms(broyden)= 0.11161E-02
  rms(prec ) = 0.13384E-02
  weight for this iteration     100.00

 eigenvalues of (default mixing * dielectric matrix)
  average eigenvalue GAMMA=   1.5083
  2.5255  1.9418  1.0751  1.0751  0.9240

 Free energy of the ion-electron system (eV)
  ---------------------------------------------------
  alpha Z        PSCENC =         0.02803141
  Ewald energy   TEWEN  =       116.41630449
  -Hartree energ DENC   =      -511.57009212
  -exchange      EXHF   =         0.00000000
  -V(xc)+E(xc)   XCENC  =        33.81549437
  PAW double counting   =       527.71372206     -529.76559795
  entropy T*S    EENTRO =        -0.00000000
  eigenvalues    EBANDS =      -108.18391185
  atomic energy  EATOM  =       457.35450057
  Solvation  Ediel_sol  =         0.00000000
  ---------------------------------------------------
  free energy    TOTEN  =       -14.19154902 eV

  energy without entropy =      -14.19154902  energy(sigma->0) =      -14.19154902


--------------------------------------------------------------------------------------------------------




--------------------------------------- Iteration      1(   7)  ---------------------------------------


    POTLOK:  cpu time     13.5245: real time     13.5246
    SETDIJ:  cpu time      0.0021: real time      0.0021
     EDDAV:  cpu time      8.4291: real time      8.4293
       DOS:  cpu time      0.0001: real time      0.0001
    CHARGE:  cpu time      1.6100: real time      1.6100
    MIXING:  cpu time      0.7238: real time      0.7238
    --------------------------------------------
      LOOP:  cpu time     24.2896: real time     24.2899

 eigenvalue-minimisations  :    32
 total energy-change (2. order) :-0.3733663E-04  (-0.1840952E-05)
 number of electron       8.0000000 magnetization 
 augmentation part        0.6790040 magnetization 

 Broyden mixing:
  rms(total) = 0.34317E-03    rms(broyden)= 0.34317E-03
  rms(prec ) = 0.60412E-03
  weight for this iteration     100.00

 eigenvalues of (default mixing * dielectric matrix)
  average eigenvalue GAMMA=   1.7206
  3.0547  2.3455  1.9632  1.0054  1.0054  0.9491

 Free energy of the ion-electron system (eV)
  ---------------------------------------------------
  alpha Z        PSCENC =         0.02803141
  Ewald energy   TEWEN  =       116.41630449
  -Hartree energ DENC   =      -511.57232934
  -exchange      EXHF   =         0.00000000
  -V(xc)+E(xc)   XCENC  =        33.81614332
  PAW double counting   =       527.81153525     -529.86406182
  entropy T*S    EENTRO =        -0.00000000
  eigenvalues    EBANDS =      -108.18171023
  atomic energy  EATOM  =       457.35450057
  Solvation  Ediel_sol  =         0.00000000
  ---------------------------------------------------
  free energy    TOTEN  =       -14.19158635 eV

  energy without entropy =      -14.19158635  energy(sigma->0) =      -14.19158635


--------------------------------------------------------------------------------------------------------




--------------------------------------- Iteration      1(   8)  ---------------------------------------


    POTLOK:  cpu time     13.4226: real time     13.4227
    SETDIJ:  cpu time      0.0020: real time      0.0020
     EDDAV:  cpu time      6.7154: real time      6.7155
       DOS:  cpu time      0.0001: real time      0.0001
    CHARGE:  cpu time      1.6118: real time      1.6118
    MIXING:  cpu time      0.7564: real time      0.7565
    --------------------------------------------
      LOOP:  cpu time     22.5083: real time     22.5085

 eigenvalue-minimisations  :    24
 total energy-change (2. order) :-0.6063425E-04  (-0.1565782E-05)
 number of electron       8.0000000 magnetization 
 augmentation part        0.6790404 magnetization 

 Broyden mixing:
  rms(total) = 0.18390E-03    rms(broyden)= 0.18390E-03
  rms(prec ) = 0.28820E-03
  weight for this iteration     100.00

 eigenvalues of (default mixing * dielectric matrix)
  average eigenvalue GAMMA=   1.7256
  3.6716  2.4931  1.8320  1.2581  0.9885  0.9885  0.8473

 Free energy of the ion-electron system (eV)
  ---------------------------------------------------
  alpha Z        PSCENC =         0.02803141
  Ewald energy   TEWEN  =       116.41630449
  -Hartree energ DENC   =      -511.52275773
  -exchange      EXHF   =         0.00000000
  -V(xc)+E(xc)   XCENC  =        33.81461328
  PAW double counting   =       527.90453529     -529.95718672
  entropy T*S    EENTRO =        -0.00000000
  eigenvalues    EBANDS =      -108.22968758
  atomic energy  EATOM  =       457.35450057
  Solvation  Ediel_sol  =         0.00000000
  ---------------------------------------------------
  free energy    TOTEN  =       -14.19164699 eV

  energy without entropy =      -14.19164699  energy(sigma->0) =      -14.19164699


--------------------------------------------------------------------------------------------------------




--------------------------------------- Iteration      1(   9)  ---------------------------------------


    POTLOK:  cpu time     13.3646: real time     13.3647
    SETDIJ:  cpu time      0.0020: real time      0.0020
     EDDAV:  cpu time      8.4218: real time      8.4219
       DOS:  cpu time      0.0001: real time      0.0001
    CHARGE:  cpu time      1.6115: real time      1.6115
    MIXING:  cpu time      0.7916: real time      0.7916
    --------------------------------------------
      LOOP:  cpu time     24.1915: real time     24.1917

 eigenvalue-minimisations  :    32
 total energy-change (2. order) :-0.1177949E-04  (-0.1085839E-06)
 number of electron       8.0000000 magnetization 
 augmentation part        0.6790252 magnetization 

 Broyden mixing:
  rms(total) = 0.15413E-03    rms(broyden)= 0.15413E-03
  rms(prec ) = 0.22636E-03
  weight for this iteration     100.00

 eigenvalues of (default mixing * dielectric matrix)
  average eigenvalue GAMMA=   1.9954
  4.9150  2.7628  2.4060  1.8845  1.1612  0.9746  0.9746  0.8846

 Free energy of the ion-electron system (eV)
  ---------------------------------------------------
  alpha Z        PSCENC =         0.02803141
  Ewald energy   TEWEN  =       116.41630449
  -Hartree energ DENC   =      -511.51776605
  -exchange      EXHF   =         0.00000000
  -V(xc)+E(xc)   XCENC  =        33.81461084
  PAW double counting   =       527.91525582     -529.96792303
  entropy T*S    EENTRO =        -0.00000000
  eigenvalues    EBANDS =      -108.23467281
  atomic energy  EATOM  =       457.35450057
  Solvation  Ediel_sol  =         0.00000000
  ---------------------------------------------------
  free energy    TOTEN  =       -14.19165877 eV

  energy without entropy =      -14.19165877  energy(sigma->0) =      -14.19165877


--------------------------------------------------------------------------------------------------------




--------------------------------------- Iteration      1(  10)  ---------------------------------------


    POTLOK:  cpu time     13.2523: real time     13.2524
    SETDIJ:  cpu time      0.0020: real time      0.0020
     EDDAV:  cpu time      6.7067: real time      6.7068
       DOS:  cpu time      0.0001: real time      0.0001
    CHARGE:  cpu time      1.6085: real time      1.6085
    MIXING:  cpu time      0.8233: real time      0.8233
    --------------------------------------------
      LOOP:  cpu time     22.3929: real time     22.3931

 eigenvalue-minimisations  :    24
 total energy-change (2. order) :-0.1813247E-04  (-0.3012270E-06)
 number of electron       8.0000000 magnetization 
 augmentation part        0.6790600 magnetization 

 Broyden mixing:
  rms(total) = 0.11495E-03    rms(broyden)= 0.11495E-03
  rms(prec ) = 0.14067E-03
  weight for this iteration     100.00

 eigenvalues of (default mixing * dielectric matrix)
  average eigenvalue GAMMA=   1.9772
  5.4241  3.0312  2.4556  1.8746  1.0950  1.0619  0.9514  0.9514  0.9500

 Free energy of the ion-electron system (eV)
  ---------------------------------------------------
  alpha Z        PSCENC =         0.02803141
  Ewald energy   TEWEN  =       116.41630449
  -Hartree energ DENC   =      -511.50289582
  -exchange      EXHF   =         0.00000000
  -V(xc)+E(xc)   XCENC  =        33.81419769
  PAW double counting   =       527.88166185     -529.93421791
  entropy T*S    EENTRO =        -0.00000000
  eigenvalues    EBANDS =      -108.24925918
  atomic energy  EATOM  =       457.35450057
  Solvation  Ediel_sol  =         0.00000000
  ---------------------------------------------------
  free energy    TOTEN  =       -14.19167690 eV

  energy without entropy =      -14.19167690  energy(sigma->0) =      -14.19167690


--------------------------------------------------------------------------------------------------------




--------------------------------------- Iteration      1(  11)  ---------------------------------------


    POTLOK:  cpu time     13.2171: real time     13.2171
    SETDIJ:  cpu time      0.0020: real time      0.0020
     EDDAV:  cpu time      6.7177: real time      6.7178
       DOS:  cpu time      0.0001: real time      0.0001
    CHARGE:  cpu time      1.6080: real time      1.6080
    MIXING:  cpu time      0.8746: real time      0.8746
    --------------------------------------------
      LOOP:  cpu time     22.4194: real time     22.4195

 eigenvalue-minimisations  :    24
 total energy-change (2. order) :-0.5673807E-05  (-0.3693874E-07)
 number of electron       8.0000000 magnetization 
 augmentation part        0.6790392 magnetization 

 Broyden mixing:
  rms(total) = 0.49261E-04    rms(broyden)= 0.49261E-04
  rms(prec ) = 0.69486E-04
  weight for this iteration     100.00

 eigenvalues of (default mixing * dielectric matrix)
  average eigenvalue GAMMA=   2.2325
  6.6946  3.7861  2.6817  2.3666  1.8903  1.1187  0.9985  0.9985  0.8950  0.8950

 Free energy of the ion-electron system (eV)
  ---------------------------------------------------
  alpha Z        PSCENC =         0.02803141
  Ewald energy   TEWEN  =       116.41630449
  -Hartree energ DENC   =      -511.50532395
  -exchange      EXHF   =         0.00000000
  -V(xc)+E(xc)   XCENC  =        33.81438339
  PAW double counting   =       527.88601087     -529.93861106
  entropy T*S    EENTRO =        -0.00000000
  eigenvalues    EBANDS =      -108.24697830
  atomic energy  EATOM  =       457.35450057
  Solvation  Ediel_sol  =         0.00000000
  ---------------------------------------------------
  free energy    TOTEN  =       -14.19168257 eV

  energy without entropy =      -14.19168257  energy(sigma->0) =      -14.19168257


--------------------------------------------------------------------------------------------------------




--------------------------------------- Iteration      1(  12)  ---------------------------------------


    POTLOK:  cpu time     13.2572: real time     13.2573
    SETDIJ:  cpu time      0.0020: real time      0.0020
     EDDAV:  cpu time      5.0183: real time      5.0183
       DOS:  cpu time      0.0001: real time      0.0001
    CHARGE:  cpu time      1.6085: real time      1.6085
    MIXING:  cpu time      0.9121: real time      0.9121
    --------------------------------------------
      LOOP:  cpu time     20.7982: real time     20.7983

 eigenvalue-minimisations  :    16
 total energy-change (2. order) :-0.7960295E-05  (-0.4358258E-07)
 number of electron       8.0000000 magnetization 
 augmentation part        0.6790388 magnetization 

 Broyden mixing:
  rms(total) = 0.22978E-04    rms(broyden)= 0.22978E-04
  rms(prec ) = 0.31524E-04
  weight for this iteration     100.00

 eigenvalues of (default mixing * dielectric matrix)
  average eigenvalue GAMMA=   2.2571
  7.1469  4.1453  2.7303  2.3896  1.8010  1.7024  1.1049  0.9874  0.9874  0.9165
  0.9165

 Free energy of the ion-electron system (eV)
  ---------------------------------------------------
  alpha Z        PSCENC =         0.02803141
  Ewald energy   TEWEN  =       116.41630449
  -Hartree energ DENC   =      -511.50467248
  -exchange      EXHF   =         0.00000000
  -V(xc)+E(xc)   XCENC  =        33.81441485
  PAW double counting   =       527.89498864     -529.94759830
  entropy T*S    EENTRO =        -0.00000000
  eigenvalues    EBANDS =      -108.24765970
  atomic energy  EATOM  =       457.35450057
  Solvation  Ediel_sol  =         0.00000000
  ---------------------------------------------------
  free energy    TOTEN  =       -14.19169053 eV

  energy without entropy =      -14.19169053  energy(sigma->0) =      -14.19169053


--------------------------------------------------------------------------------------------------------




--------------------------------------- Iteration      1(  13)  ---------------------------------------


    POTLOK:  cpu time     13.3232: real time     13.3233
    SETDIJ:  cpu time      0.0020: real time      0.0020
     EDDAV:  cpu time      6.7042: real time      6.7043
       DOS:  cpu time      0.0001: real time      0.0001
    CHARGE:  cpu time      1.6078: real time      1.6078
    MIXING:  cpu time      0.9535: real time      0.9535
    --------------------------------------------
      LOOP:  cpu time     22.5907: real time     22.5909

 eigenvalue-minimisations  :    24
 total energy-change (2. order) :-0.2983947E-05  (-0.7744646E-08)
 number of electron       8.0000000 magnetization 
 augmentation part        0.6790458 magnetization 

 Broyden mixing:
  rms(total) = 0.20362E-04    rms(broyden)= 0.20362E-04
  rms(prec ) = 0.24935E-04
  weight for this iteration     100.00

 eigenvalues of (default mixing * dielectric matrix)
  average eigenvalue GAMMA=   2.3212
  7.8642  4.4344  3.0025  2.4428  2.3151  1.8989  1.1052  1.1052  0.9566  0.9566
  0.8867  0.8867

 Free energy of the ion-electron system (eV)
  ---------------------------------------------------
  alpha Z        PSCENC =         0.02803141
  Ewald energy   TEWEN  =       116.41630449
  -Hartree energ DENC   =      -511.50373870
  -exchange      EXHF   =         0.00000000
  -V(xc)+E(xc)   XCENC  =        33.81437434
  PAW double counting   =       527.89309372     -529.94569398
  entropy T*S    EENTRO =        -0.00000000
  eigenvalues    EBANDS =      -108.24856537
  atomic energy  EATOM  =       457.35450057
  Solvation  Ediel_sol  =         0.00000000
  ---------------------------------------------------
  free energy    TOTEN  =       -14.19169352 eV

  energy without entropy =      -14.19169352  energy(sigma->0) =      -14.19169352


--------------------------------------------------------------------------------------------------------




--------------------------------------- Iteration      1(  14)  ---------------------------------------


    POTLOK:  cpu time     13.5044: real time     13.5045
    SETDIJ:  cpu time      0.0020: real time      0.0020
     EDDAV:  cpu time      5.0127: real time      5.0127
       DOS:  cpu time      0.0001: real time      0.0001
    CHARGE:  cpu time      1.6100: real time      1.6100
    MIXING:  cpu time      1.0034: real time      1.0034
    --------------------------------------------
      LOOP:  cpu time     21.1326: real time     21.1327

 eigenvalue-minimisations  :    16
 total energy-change (2. order) :-0.1961573E-05  (-0.4333502E-08)
 number of electron       8.0000000 magnetization 
 augmentation part        0.6790400 magnetization 

 Broyden mixing:
  rms(total) = 0.13892E-04    rms(broyden)= 0.13892E-04
  rms(prec ) = 0.16190E-04
  weight for this iteration     100.00

 eigenvalues of (default mixing * dielectric matrix)
  average eigenvalue GAMMA=   2.3347
  8.0598  4.9694  3.2102  2.6442  2.3116  1.8792  1.4125  1.0838  1.0838  0.9392
  0.9392  0.9264  0.8925

 Free energy of the ion-electron system (eV)
  ---------------------------------------------------
  alpha Z        PSCENC =         0.02803141
  Ewald energy   TEWEN  =       116.41630449
  -Hartree energ DENC   =      -511.50433423
  -exchange      EXHF   =         0.00000000
  -V(xc)+E(xc)   XCENC  =        33.81441631
  PAW double counting   =       527.89390033     -529.94651596
  entropy T*S    EENTRO =        -0.00000000
  eigenvalues    EBANDS =      -108.24799840
  atomic energy  EATOM  =       457.35450057
  Solvation  Ediel_sol  =         0.00000000
  ---------------------------------------------------
  free energy    TOTEN  =       -14.19169548 eV

  energy without entropy =      -14.19169548  energy(sigma->0) =      -14.19169548


--------------------------------------------------------------------------------------------------------




--------------------------------------- Iteration      1(  15)  ---------------------------------------


    POTLOK:  cpu time     13.6512: real time     13.6512
    SETDIJ:  cpu time      0.0020: real time      0.0020
     EDDAV:  cpu time      6.7047: real time      6.7047
       DOS:  cpu time      0.0001: real time      0.0001
    --------------------------------------------
      LOOP:  cpu time     20.3579: real time     20.3580

 eigenvalue-minimisations  :    24
 total energy-change (2. order) :-0.7940635E-06  (-0.1249109E-08)
 number of electron       8.0000000 magnetization 
 augmentation part        0.6790400 magnetization 

 Free energy of the ion-electron system (eV)
  ---------------------------------------------------
  alpha Z        PSCENC =         0.02803141
  Ewald energy   TEWEN  =       116.41630449
  -Hartree energ DENC   =      -511.50390060
  -exchange      EXHF   =         0.00000000
  -V(xc)+E(xc)   XCENC  =        33.81439566
  PAW double counting   =       527.89307658     -529.94568144
  entropy T*S    EENTRO =        -0.00000000
  eigenvalues    EBANDS =      -108.24842294
  atomic energy  EATOM  =       457.35450057
  Solvation  Ediel_sol  =         0.00000000
  ---------------------------------------------------
  free energy    TOTEN  =       -14.19169627 eV

  energy without entropy =      -14.19169627  energy(sigma->0) =      -14.19169627


--------------------------------------------------------------------------------------------------------




 average (electrostatic) potential at core
  the test charge radii are     0.5201  0.7215
  (the norm of the test charge is              1.0000)
       1 -44.3688       2 -44.3620       3 -80.5322
 
 
 
 E-fermi :  -6.1755     XC(G=0):  -0.0943     alpha+bet : -0.0163

 Fermi energy:        -6.1755319232

 k-point     1 :       0.0000    0.0000    0.0000
  band No.  band energies     occupation 
      1     -24.9519      2.00000
      2     -12.9113      2.00000
      3      -9.1351      2.00000
      4      -7.1259      2.00000
      5      -1.0745      0.00000
      6       0.0182      0.00000
      7       0.1997      0.00000
      8       0.3101      0.00000


--------------------------------------------------------------------------------------------------------


 soft charge-density along one line, spin component           1
         0         1         2         3         4         5         6         7         8         9
 total charge-density along one line
 
 pseudopotential strength for first ion, spin component:           1
 -2.381  -4.111  -0.000   0.003   0.000
 -4.111  -7.012  -0.000   0.008   0.000
 -0.000  -0.000  -0.326  -0.000  -0.000
  0.003   0.008  -0.000  -0.318  -0.000
  0.000   0.000  -0.000  -0.000  -0.326
 total augmentation occupancy for first ion, spin component:           1
  3.591  -0.756   0.000  -0.649   0.005
 -0.756   0.204   0.000   0.135  -0.006
  0.000   0.000   0.035   0.000   0.000
 -0.649   0.135   0.000   0.118  -0.003
  0.005  -0.006   0.000  -0.003   0.023


------------------------ aborting loop because EDIFF is reached ----------------------------------------


    CHARGE:  cpu time      1.6078: real time      1.6078
    FORLOC:  cpu time      1.1768: real time      1.1768
    FORNL :  cpu time      0.4589: real time      0.4589
    STRESS:  cpu time      4.8684: real time      4.8684
    FORCOR:  cpu time     15.5692: real time     15.5692
    FORHAR:  cpu time      4.2087: real time      4.2088
    MIXING:  cpu time      1.0518: real time      1.0517
    OFIELD:  cpu time      0.0000: real time      0.0000

  FORCE on cell =-STRESS in cart. coord.  units (eV):
  Direction    XX          YY          ZZ          XY          YZ          ZX
  --------------------------------------------------------------------------------------
  Alpha Z     0.02803     0.02803     0.02803
  Ewald      59.69800   -21.81814    78.53640     0.00341     0.00032    26.95786
  Hartree   174.39683   159.30155   177.80570     0.00023    -0.00014     4.88993
  E(xc)     -35.84572   -36.20365   -35.77167    -0.00000     0.00000     0.10649
  Local    -318.56278  -246.17637  -335.77614    -0.00107    -0.00100   -24.65248
  n-local   -30.02047   -30.46968   -29.77245     0.00055    -0.00044     0.36795
  augment     6.37274     8.09005     6.04965    -0.00001     0.00003    -0.46390
  Kinetic   142.78406   167.24246   137.40465    -0.00159     0.00024    -7.74684
  Fock        0.00000     0.00000     0.00000     0.00000     0.00000     0.00000
  -------------------------------------------------------------------------------------
  Total      -1.14932    -0.00575    -1.49583     0.00000     0.00000    -0.54098
  in kB      -0.23018    -0.00115    -0.29957     0.00000     0.00000    -0.10834
  external pressure =       -0.18 kB  Pullay stress =        0.00 kB


 VOLUME and BASIS-vectors are now :
 -----------------------------------------------------------------------------
  energy-cutoff  :     1200.00
  volume of cell :     8000.00
      direct lattice vectors                 reciprocal lattice vectors
    20.000000000  0.000000000  0.000000000     0.050000000  0.000000000  0.000000000
     0.000000000 20.000000000  0.000000000     0.000000000  0.050000000  0.000000000
     0.000000000  0.000000000 20.000000000     0.000000000  0.000000000  0.050000000

  length of vectors
    20.000000000 20.000000000 20.000000000     0.050000000  0.050000000  0.050000000


 FORCES acting on ions
    electron-ion (+dipol)            ewald-force                    non-local-force                 convergence-correction
 -----------------------------------------------------------------------------------------------
   -.107E+01 -.814E-02 -.847E+02   0.101E+01 -.758E-03 0.909E+02   -.111E+00 -.271E-19 -.752E+01   -.412E-05 0.698E-09 0.172E-04
   0.796E+02 -.434E-02 0.288E+02   -.854E+02 -.355E-02 -.308E+02   0.705E+01 0.136E-19 0.257E+01   -.162E-04 0.538E-10 -.397E-05
   -.468E+02 -.116E+00 0.334E+02   0.844E+02 0.431E-02 -.601E+02   -.386E+02 -.434E-18 0.275E+02   0.101E-04 0.367E-07 -.583E-04
 -----------------------------------------------------------------------------------------------
   0.317E+02 -.129E+00 -.225E+02   0.000E+00 -.607E-17 -.711E-14   -.317E+02 -.447E-18 0.225E+02   -.102E-04 0.375E-07 -.450E-04
 
 
 POSITION                                       TOTAL-FORCE (eV/Angst)
 -----------------------------------------------------------------------------------
      5.10791      0.00007      1.44532        -0.175119      0.000000     -1.306499
      4.18045      0.00004      0.14168         1.202911      0.000000      0.602719
      5.13390      0.00008      0.44561        -1.027792      0.000000      0.703780
 -----------------------------------------------------------------------------------
    total drift:                               -0.000052     -0.128760      0.000218


--------------------------------------------------------------------------------------------------------



  FREE ENERGIE OF THE ION-ELECTRON SYSTEM (eV)
  ---------------------------------------------------
  free  energy   TOTEN  =       -14.19169627 eV

  energy  without entropy=      -14.19169627  energy(sigma->0) =      -14.19169627
 


--------------------------------------------------------------------------------------------------------


    POTLOK:  cpu time     13.8365: real time     13.8369


--------------------------------------------------------------------------------------------------------




--------------------------------------------------------------------------------------------------------


    WAVPRE:  cpu time     38.0020: real time     38.0082
    FEWALD:  cpu time      0.0001: real time      0.0001
    ORTHCH:  cpu time      0.1955: real time      0.1955
     LOOP+:  cpu time    421.4853: real time    421.4947


--------------------------------------- Ionic step        2  -------------------------------------------




--------------------------------------- Iteration      2(   1)  ---------------------------------------


    POTLOK:  cpu time     13.6535: real time     13.6535
    SETDIJ:  cpu time      0.0020: real time      0.0020
     EDDAV:  cpu time      5.0093: real time      5.0093
       DOS:  cpu time      0.0001: real time      0.0001
    CHARGE:  cpu time      1.6094: real time      1.6095
    MIXING:  cpu time      0.5730: real time      0.5730
    --------------------------------------------
      LOOP:  cpu time     20.8474: real time     20.8475

 eigenvalue-minimisations  :    16
 total energy-change (2. order) : 0.1891441E+00  (-0.2974737E+01)
 number of electron       8.0000000 magnetization 
 augmentation part        0.7466146 magnetization 

 Broyden mixing:
  rms(total) = 0.20634E+00    rms(broyden)= 0.20634E+00
  rms(prec ) = 0.21802E+00
  weight for this iteration     100.00

 Free energy of the ion-electron system (eV)
  ---------------------------------------------------
  alpha Z        PSCENC =         0.02803141
  Ewald energy   TEWEN  =       136.00940182
  -Hartree energ DENC   =      -520.52511227
  -exchange      EXHF   =         0.00000000
  -V(xc)+E(xc)   XCENC  =        34.23626104
  PAW double counting   =       527.89314997     -529.94575512
  entropy T*S    EENTRO =        -0.00000000
  eigenvalues    EBANDS =      -119.05302883
  atomic energy  EATOM  =       457.35450057
  Solvation  Ediel_sol  =         0.00000000
  ---------------------------------------------------
  free energy    TOTEN  =       -14.00255140 eV

  energy without entropy =      -14.00255140  energy(sigma->0) =      -14.00255140


--------------------------------------------------------------------------------------------------------




--------------------------------------- Iteration      2(   2)  ---------------------------------------


    POTLOK:  cpu time     12.9785: real time     12.9786
    SETDIJ:  cpu time      0.0020: real time      0.0020
     EDDAV:  cpu time      5.0249: real time      5.0249
       DOS:  cpu time      0.0001: real time      0.0001
    CHARGE:  cpu time      1.6110: real time      1.6110
    MIXING:  cpu time      0.5923: real time      0.5922
    --------------------------------------------
      LOOP:  cpu time     20.2087: real time     20.2088

 eigenvalue-minimisations  :    16
 total energy-change (2. order) : 0.4351622E-01  (-0.6840991E-01)
 number of electron       8.0000000 magnetization 
 augmentation part        0.7366218 magnetization 

 Broyden mixing:
  rms(total) = 0.85455E-01    rms(broyden)= 0.85455E-01
  rms(prec ) = 0.89286E-01
  weight for this iteration     100.00

 eigenvalues of (default mixing * dielectric matrix)
  average eigenvalue GAMMA=   1.2828
  1.2828

 Free energy of the ion-electron system (eV)
  ---------------------------------------------------
  alpha Z        PSCENC =         0.02803141
  Ewald energy   TEWEN  =       136.00940182
  -Hartree energ DENC   =      -525.13150428
  -exchange      EXHF   =         0.00000000
  -V(xc)+E(xc)   XCENC  =        34.49661525
  PAW double counting   =       557.42543397     -559.56444937
  entropy T*S    EENTRO =        -0.00000000
  eigenvalues    EBANDS =      -114.57706456
  atomic energy  EATOM  =       457.35450057
  Solvation  Ediel_sol  =         0.00000000
  ---------------------------------------------------
  free energy    TOTEN  =       -13.95903519 eV

  energy without entropy =      -13.95903519  energy(sigma->0) =      -13.95903519


--------------------------------------------------------------------------------------------------------




--------------------------------------- Iteration      2(   3)  ---------------------------------------


    POTLOK:  cpu time     13.1005: real time     13.1006
    SETDIJ:  cpu time      0.0020: real time      0.0020
     EDDAV:  cpu time      5.0249: real time      5.0249
       DOS:  cpu time      0.0001: real time      0.0001
    CHARGE:  cpu time      1.6114: real time      1.6118
    MIXING:  cpu time      0.6176: real time      0.6176
    --------------------------------------------
      LOOP:  cpu time     20.3565: real time     20.3570

 eigenvalue-minimisations  :    16
 total energy-change (2. order) : 0.1046112E-01  (-0.6274610E-02)
 number of electron       8.0000001 magnetization 
 augmentation part        0.7270875 magnetization 

 Broyden mixing:
  rms(total) = 0.37532E-01    rms(broyden)= 0.37532E-01
  rms(prec ) = 0.39061E-01
  weight for this iteration     100.00

 eigenvalues of (default mixing * dielectric matrix)
  average eigenvalue GAMMA=   1.3489
  1.3489  1.3489

 Free energy of the ion-electron system (eV)
  ---------------------------------------------------
  alpha Z        PSCENC =         0.02803141
  Ewald energy   TEWEN  =       136.00940182
  -Hartree energ DENC   =      -526.84687793
  -exchange      EXHF   =         0.00000000
  -V(xc)+E(xc)   XCENC  =        34.59487662
  PAW double counting   =       577.83455111     -580.02593287
  entropy T*S    EENTRO =        -0.00000000
  eigenvalues    EBANDS =      -112.89712480
  atomic energy  EATOM  =       457.35450057
  Solvation  Ediel_sol  =         0.00000000
  ---------------------------------------------------
  free energy    TOTEN  =       -13.94857406 eV

  energy without entropy =      -13.94857406  energy(sigma->0) =      -13.94857406


--------------------------------------------------------------------------------------------------------




--------------------------------------- Iteration      2(   4)  ---------------------------------------


    POTLOK:  cpu time     13.3011: real time     13.3015
    SETDIJ:  cpu time      0.0020: real time      0.0020
     EDDAV:  cpu time      6.7148: real time      6.7148
       DOS:  cpu time      0.0001: real time      0.0001
    CHARGE:  cpu time      1.6097: real time      1.6097
    MIXING:  cpu time      0.6393: real time      0.6393
    --------------------------------------------
      LOOP:  cpu time     22.2669: real time     22.2673

 eigenvalue-minimisations  :    24
 total energy-change (2. order) : 0.1437073E-02  (-0.1270059E-02)
 number of electron       8.0000001 magnetization 
 augmentation part        0.7318427 magnetization 

 Broyden mixing:
  rms(total) = 0.19738E-01    rms(broyden)= 0.19738E-01
  rms(prec ) = 0.20638E-01
  weight for this iteration     100.00

 eigenvalues of (default mixing * dielectric matrix)
  average eigenvalue GAMMA=   1.4416
  2.3376  0.9935  0.9935

 Free energy of the ion-electron system (eV)
  ---------------------------------------------------
  alpha Z        PSCENC =         0.02803141
  Ewald energy   TEWEN  =       136.00940182
  -Hartree energ DENC   =      -526.27526898
  -exchange      EXHF   =         0.00000000
  -V(xc)+E(xc)   XCENC  =        34.56413226
  PAW double counting   =       585.20126499     -587.39224849
  entropy T*S    EENTRO =        -0.00000000
  eigenvalues    EBANDS =      -113.43695059
  atomic energy  EATOM  =       457.35450057
  Solvation  Ediel_sol  =         0.00000000
  ---------------------------------------------------
  free energy    TOTEN  =       -13.94713699 eV

  energy without entropy =      -13.94713699  energy(sigma->0) =      -13.94713699


--------------------------------------------------------------------------------------------------------




--------------------------------------- Iteration      2(   5)  ---------------------------------------


    POTLOK:  cpu time     13.3926: real time     13.3927
    SETDIJ:  cpu time      0.0020: real time      0.0020
     EDDAV:  cpu time      6.7080: real time      6.7080
       DOS:  cpu time      0.0001: real time      0.0001
    CHARGE:  cpu time      1.6100: real time      1.6100
    MIXING:  cpu time      0.6624: real time      0.6623
    --------------------------------------------
      LOOP:  cpu time     22.3750: real time     22.3751

 eigenvalue-minimisations  :    24
 total energy-change (2. order) : 0.4986830E-03  (-0.3242628E-03)
 number of electron       8.0000001 magnetization 
 augmentation part        0.7299443 magnetization 

 Broyden mixing:
  rms(total) = 0.28852E-02    rms(broyden)= 0.28852E-02
  rms(prec ) = 0.31772E-02
  weight for this iteration     100.00

 eigenvalues of (default mixing * dielectric matrix)
  average eigenvalue GAMMA=   1.4979
  2.3048  1.6355  1.1387  0.9125

 Free energy of the ion-electron system (eV)
  ---------------------------------------------------
  alpha Z        PSCENC =         0.02803141
  Ewald energy   TEWEN  =       136.00940182
  -Hartree energ DENC   =      -526.70220797
  -exchange      EXHF   =         0.00000000
  -V(xc)+E(xc)   XCENC  =        34.58915477
  PAW double counting   =       594.18327383     -596.39423766
  entropy T*S    EENTRO =        -0.00000000
  eigenvalues    EBANDS =      -113.01455509
  atomic energy  EATOM  =       457.35450057
  Solvation  Ediel_sol  =         0.00000000
  ---------------------------------------------------
  free energy    TOTEN  =       -13.94663831 eV

  energy without entropy =      -13.94663831  energy(sigma->0) =      -13.94663831


--------------------------------------------------------------------------------------------------------




--------------------------------------- Iteration      2(   6)  ---------------------------------------


    POTLOK:  cpu time     13.4714: real time     13.4715
    SETDIJ:  cpu time      0.0020: real time      0.0020
     EDDAV:  cpu time      6.7136: real time      6.7143
       DOS:  cpu time      0.0001: real time      0.0001
    CHARGE:  cpu time      1.6099: real time      1.6099
    MIXING:  cpu time      0.6961: real time      0.6961
    --------------------------------------------
      LOOP:  cpu time     22.4930: real time     22.4938

 eigenvalue-minimisations  :    24
 total energy-change (2. order) :-0.1723285E-03  (-0.1767448E-04)
 number of electron       8.0000001 magnetization 
 augmentation part        0.7294938 magnetization 

 Broyden mixing:
  rms(total) = 0.20146E-02    rms(broyden)= 0.20146E-02
  rms(prec ) = 0.22787E-02
  weight for this iteration     100.00

 eigenvalues of (default mixing * dielectric matrix)
  average eigenvalue GAMMA=   1.4690
  2.4771  1.8180  1.1375  0.9562  0.9562

 Free energy of the ion-electron system (eV)
  ---------------------------------------------------
  alpha Z        PSCENC =         0.02803141
  Ewald energy   TEWEN  =       136.00940182
  -Hartree energ DENC   =      -526.73674746
  -exchange      EXHF   =         0.00000000
  -V(xc)+E(xc)   XCENC  =        34.59066564
  PAW double counting   =       594.87469071     -597.08777481
  entropy T*S    EENTRO =        -0.00000000
  eigenvalues    EBANDS =      -112.97957852
  atomic energy  EATOM  =       457.35450057
  Solvation  Ediel_sol  =         0.00000000
  ---------------------------------------------------
  free energy    TOTEN  =       -13.94681064 eV

  energy without entropy =      -13.94681064  energy(sigma->0) =      -13.94681064


--------------------------------------------------------------------------------------------------------




--------------------------------------- Iteration      2(   7)  ---------------------------------------


    POTLOK:  cpu time     13.5241: real time     13.5242
    SETDIJ:  cpu time      0.0020: real time      0.0020
     EDDAV:  cpu time      6.7150: real time      6.7150
       DOS:  cpu time      0.0001: real time      0.0001
    CHARGE:  cpu time      1.6114: real time      1.6114
    MIXING:  cpu time      0.7238: real time      0.7238
    --------------------------------------------
      LOOP:  cpu time     22.5763: real time     22.5764

 eigenvalue-minimisations  :    24
 total energy-change (2. order) :-0.7352914E-04  (-0.4941137E-05)
 number of electron       8.0000001 magnetization 
 augmentation part        0.7298191 magnetization 

 Broyden mixing:
  rms(total) = 0.44784E-03    rms(broyden)= 0.44784E-03
  rms(prec ) = 0.74241E-03
  weight for this iteration     100.00

 eigenvalues of (default mixing * dielectric matrix)
  average eigenvalue GAMMA=   1.5296
  2.5015  2.1760  1.4876  0.9233  0.9233  1.1660

 Free energy of the ion-electron system (eV)
  ---------------------------------------------------
  alpha Z        PSCENC =         0.02803141
  Ewald energy   TEWEN  =       136.00940182
  -Hartree energ DENC   =      -526.69882705
  -exchange      EXHF   =         0.00000000
  -V(xc)+E(xc)   XCENC  =        34.58834033
  PAW double counting   =       595.14175443     -597.35422627
  entropy T*S    EENTRO =        -0.00000000
  eigenvalues    EBANDS =      -113.01585942
  atomic energy  EATOM  =       457.35450057
  Solvation  Ediel_sol  =         0.00000000
  ---------------------------------------------------
  free energy    TOTEN  =       -13.94688417 eV

  energy without entropy =      -13.94688417  energy(sigma->0) =      -13.94688417


--------------------------------------------------------------------------------------------------------




--------------------------------------- Iteration      2(   8)  ---------------------------------------


    POTLOK:  cpu time     13.6071: real time     13.6072
    SETDIJ:  cpu time      0.0020: real time      0.0020
     EDDAV:  cpu time      6.7112: real time      6.7112
       DOS:  cpu time      0.0001: real time      0.0001
    CHARGE:  cpu time      1.6102: real time      1.6102
    MIXING:  cpu time      0.7560: real time      0.7560
    --------------------------------------------
      LOOP:  cpu time     22.6865: real time     22.6867

 eigenvalue-minimisations  :    24
 total energy-change (2. order) :-0.1296282E-03  (-0.1896147E-05)
 number of electron       8.0000001 magnetization 
 augmentation part        0.7299465 magnetization 

 Broyden mixing:
  rms(total) = 0.58506E-03    rms(broyden)= 0.58506E-03
  rms(prec ) = 0.72620E-03
  weight for this iteration     100.00

 eigenvalues of (default mixing * dielectric matrix)
  average eigenvalue GAMMA=   1.6089
  3.0323  2.3958  1.8402  0.9999  0.9999  0.9971  0.9971

 Free energy of the ion-electron system (eV)
  ---------------------------------------------------
  alpha Z        PSCENC =         0.02803141
  Ewald energy   TEWEN  =       136.00940182
  -Hartree energ DENC   =      -526.68460264
  -exchange      EXHF   =         0.00000000
  -V(xc)+E(xc)   XCENC  =        34.58709352
  PAW double counting   =       595.10459677     -597.31661315
  entropy T*S    EENTRO =        -0.00000000
  eigenvalues    EBANDS =      -113.02942210
  atomic energy  EATOM  =       457.35450057
  Solvation  Ediel_sol  =         0.00000000
  ---------------------------------------------------
  free energy    TOTEN  =       -13.94701379 eV

  energy without entropy =      -13.94701379  energy(sigma->0) =      -13.94701379


--------------------------------------------------------------------------------------------------------




--------------------------------------- Iteration      2(   9)  ---------------------------------------


    POTLOK:  cpu time     13.6691: real time     13.6691
    SETDIJ:  cpu time      0.0020: real time      0.0020
     EDDAV:  cpu time      6.7157: real time      6.7157
       DOS:  cpu time      0.0001: real time      0.0001
    CHARGE:  cpu time      1.6105: real time      1.6105
    MIXING:  cpu time      0.7930: real time      0.7930
    --------------------------------------------
      LOOP:  cpu time     22.7903: real time     22.7904

 eigenvalue-minimisations  :    24
 total energy-change (2. order) :-0.9686623E-04  (-0.1309206E-05)
 number of electron       8.0000001 magnetization 
 augmentation part        0.7298493 magnetization 

 Broyden mixing:
  rms(total) = 0.16880E-03    rms(broyden)= 0.16880E-03
  rms(prec ) = 0.28809E-03
  weight for this iteration     100.00

 eigenvalues of (default mixing * dielectric matrix)
  average eigenvalue GAMMA=   1.8343
  4.3341  2.5277  2.0554  1.8514  0.9827  0.9827  1.0248  0.9157

 Free energy of the ion-electron system (eV)
  ---------------------------------------------------
  alpha Z        PSCENC =         0.02803141
  Ewald energy   TEWEN  =       136.00940182
  -Hartree energ DENC   =      -526.70686198
  -exchange      EXHF   =         0.00000000
  -V(xc)+E(xc)   XCENC  =        34.58797776
  PAW double counting   =       595.12857667     -597.34080760
  entropy T*S    EENTRO =        -0.00000000
  eigenvalues    EBANDS =      -113.00792931
  atomic energy  EATOM  =       457.35450057
  Solvation  Ediel_sol  =         0.00000000
  ---------------------------------------------------
  free energy    TOTEN  =       -13.94711066 eV

  energy without entropy =      -13.94711066  energy(sigma->0) =      -13.94711066


--------------------------------------------------------------------------------------------------------




--------------------------------------- Iteration      2(  10)  ---------------------------------------


    POTLOK:  cpu time     13.7772: real time     13.7773
    SETDIJ:  cpu time      0.0020: real time      0.0020
     EDDAV:  cpu time      6.7177: real time      6.7177
       DOS:  cpu time      0.0001: real time      0.0001
    CHARGE:  cpu time      1.6124: real time      1.6124
    MIXING:  cpu time      0.8264: real time      0.8264
    --------------------------------------------
      LOOP:  cpu time     22.9358: real time     22.9359

 eigenvalue-minimisations  :    24
 total energy-change (2. order) :-0.8208235E-04  (-0.8674580E-06)
 number of electron       8.0000001 magnetization 
 augmentation part        0.7298459 magnetization 

 Broyden mixing:
  rms(total) = 0.12852E-03    rms(broyden)= 0.12852E-03
  rms(prec ) = 0.16985E-03
  weight for this iteration     100.00

 eigenvalues of (default mixing * dielectric matrix)
  average eigenvalue GAMMA=   1.9874
  5.8278  2.7275  2.3736  1.8807  0.9922  0.9922  1.1305  1.0153  0.9469

 Free energy of the ion-electron system (eV)
  ---------------------------------------------------
  alpha Z        PSCENC =         0.02803141
  Ewald energy   TEWEN  =       136.00940182
  -Hartree energ DENC   =      -526.71514323
  -exchange      EXHF   =         0.00000000
  -V(xc)+E(xc)   XCENC  =        34.58813991
  PAW double counting   =       595.09682442     -597.30904138
  entropy T*S    EENTRO =        -0.00000000
  eigenvalues    EBANDS =      -112.99990627
  atomic energy  EATOM  =       457.35450057
  Solvation  Ediel_sol  =         0.00000000
  ---------------------------------------------------
  free energy    TOTEN  =       -13.94719274 eV

  energy without entropy =      -13.94719274  energy(sigma->0) =      -13.94719274


--------------------------------------------------------------------------------------------------------




--------------------------------------- Iteration      2(  11)  ---------------------------------------


    POTLOK:  cpu time     13.8044: real time     13.8045
    SETDIJ:  cpu time      0.0020: real time      0.0020
     EDDAV:  cpu time      8.4320: real time      8.4321
       DOS:  cpu time      0.0001: real time      0.0001
    CHARGE:  cpu time      1.6115: real time      1.6115
    MIXING:  cpu time      0.8732: real time      0.8732
    --------------------------------------------
      LOOP:  cpu time     24.7232: real time     24.7233

[...]
  -Hartree energ DENC   =      -515.75428921
  -exchange      EXHF   =         0.00000000
  -V(xc)+E(xc)   XCENC  =        34.02836595
  PAW double counting   =       544.71017737     -546.79088860
  entropy T*S    EENTRO =        -0.00000000
  eigenvalues    EBANDS =      -109.68304178
  atomic energy  EATOM  =       457.35450057
  Solvation  Ediel_sol  =         0.00000000
  ---------------------------------------------------
  free energy    TOTEN  =       -14.23382468 eV

  energy without entropy =      -14.23382468  energy(sigma->0) =      -14.23382468


--------------------------------------------------------------------------------------------------------




--------------------------------------- Iteration     15(   2)  ---------------------------------------


    POTLOK:  cpu time     13.7147: real time     13.7148
    SETDIJ:  cpu time      0.0020: real time      0.0020
     EDDAV:  cpu time      6.7114: real time      6.7115
       DOS:  cpu time      0.0001: real time      0.0001
    --------------------------------------------
      LOOP:  cpu time     20.4281: real time     20.4283

 eigenvalue-minimisations  :    24
 total energy-change (2. order) :-0.4313279E-08  (-0.6120011E-09)
 number of electron       8.0000000 magnetization 
 augmentation part        0.6904500 magnetization 

 Free energy of the ion-electron system (eV)
  ---------------------------------------------------
  alpha Z        PSCENC =         0.02803141
  Ewald energy   TEWEN  =       121.87331961
  -Hartree energ DENC   =      -515.75476410
  -exchange      EXHF   =         0.00000000
  -V(xc)+E(xc)   XCENC  =        34.02839292
  PAW double counting   =       544.71013798     -546.79085361
  entropy T*S    EENTRO =        -0.00000000
  eigenvalues    EBANDS =      -109.68258947
  atomic energy  EATOM  =       457.35450057
  Solvation  Ediel_sol  =         0.00000000
  ---------------------------------------------------
  free energy    TOTEN  =       -14.23382468 eV

  energy without entropy =      -14.23382468  energy(sigma->0) =      -14.23382468


--------------------------------------------------------------------------------------------------------




 average (electrostatic) potential at core
  the test charge radii are     0.5201  0.7215
  (the norm of the test charge is              1.0000)
       1 -44.7118       2 -44.7117       3 -80.5685
 
 
 
 E-fermi :  -6.2612     XC(G=0):  -0.0778     alpha+bet : -0.0163

 Fermi energy:        -6.2611622718

 k-point     1 :       0.0000    0.0000    0.0000
  band No.  band energies     occupation 
      1     -25.2926      2.00000
      2     -13.0946      2.00000
      3      -9.2587      2.00000
      4      -7.1954      2.00000
      5      -0.9852      0.00000
      6       0.0361      0.00000
      7       0.2410      0.00000
      8       0.3281      0.00000


--------------------------------------------------------------------------------------------------------


 soft charge-density along one line, spin component           1
         0         1         2         3         4         5         6         7         8         9
 total charge-density along one line
 
 pseudopotential strength for first ion, spin component:           1
 -2.384  -4.117  -0.000   0.003  -0.000
 -4.117  -7.023  -0.000   0.009  -0.000
 -0.000  -0.000  -0.324  -0.000   0.000
  0.003   0.009  -0.000  -0.314  -0.000
 -0.000  -0.000   0.000  -0.000  -0.323
 total augmentation occupancy for first ion, spin component:           1
  3.739  -0.783   0.000  -0.720   0.018
 -0.783   0.216   0.000   0.146  -0.009
  0.000   0.000   0.041   0.000   0.000
 -0.720   0.146   0.000   0.139  -0.005
  0.018  -0.009   0.000  -0.005   0.027


------------------------ aborting loop because EDIFF is reached ----------------------------------------


    CHARGE:  cpu time      1.6093: real time      1.6093
    FORLOC:  cpu time      1.1775: real time      1.1775
    FORNL :  cpu time      0.4590: real time      0.4590
    STRESS:  cpu time      4.8704: real time      4.8705
    FORCOR:  cpu time     15.5689: real time     15.5690
    FORHAR:  cpu time      4.2094: real time      4.2094
    MIXING:  cpu time      0.5915: real time      0.5915
    OFIELD:  cpu time      0.0000: real time      0.0000

  FORCE on cell =-STRESS in cart. coord.  units (eV):
  Direction    XX          YY          ZZ          XY          YZ          ZX
  --------------------------------------------------------------------------------------
  Alpha Z     0.02803     0.02803     0.02803
  Ewald      62.99391   -21.81647    80.69591     0.00364     0.00029    25.42923
  Hartree   175.95655   160.81470   178.98384     0.00025    -0.00015     4.34048
  E(xc)     -36.06535   -36.42735   -36.00026    -0.00000     0.00000     0.09369
  Local    -322.45899  -248.18492  -338.21619    -0.00125    -0.00092   -22.61462
  n-local   -30.69394   -30.80054   -30.42737     0.00052    -0.00042     0.38385
  augment     6.41454     8.15712     6.09742    -0.00001     0.00002    -0.45600
  Kinetic   143.81738   168.22365   138.83187    -0.00151     0.00018    -7.17654
  Fock        0.00000     0.00000     0.00000     0.00000     0.00000     0.00000
  -------------------------------------------------------------------------------------
  Total      -0.00786    -0.00578    -0.00674     0.00000     0.00000     0.00009
  in kB      -0.00157    -0.00116    -0.00135     0.00000     0.00000     0.00002
  external pressure =       -0.00 kB  Pullay stress =        0.00 kB


 VOLUME and BASIS-vectors are now :
 -----------------------------------------------------------------------------
  energy-cutoff  :     1200.00
  volume of cell :     8000.00
      direct lattice vectors                 reciprocal lattice vectors
    20.000000000  0.000000000  0.000000000     0.050000000  0.000000000  0.000000000
     0.000000000 20.000000000  0.000000000     0.000000000  0.050000000  0.000000000
     0.000000000  0.000000000 20.000000000     0.000000000  0.000000000  0.050000000

  length of vectors
    20.000000000 20.000000000 20.000000000     0.050000000  0.050000000  0.050000000


 FORCES acting on ions
    electron-ion (+dipol)            ewald-force                    non-local-force                 convergence-correction
 -----------------------------------------------------------------------------------------------
   0.136E+00 -.855E-02 -.880E+02   -.185E+00 -.822E-03 0.963E+02   0.488E-01 -.203E-19 -.832E+01   0.424E-05 -.131E-09 0.156E-04
   0.832E+02 -.455E-02 0.287E+02   -.911E+02 -.388E-02 -.314E+02   0.788E+01 0.000E+00 0.269E+01   -.168E-04 -.123E-08 -.129E-04
   -.513E+02 -.117E+00 0.365E+02   0.912E+02 0.471E-02 -.649E+02   -.400E+02 -.867E-18 0.284E+02   0.704E-04 0.192E-07 -.614E-04
 -----------------------------------------------------------------------------------------------
   0.321E+02 -.130E+00 -.228E+02   0.000E+00 -.520E-17 0.000E+00   -.320E+02 -.888E-18 0.228E+02   0.578E-04 0.178E-07 -.587E-04
 
 
 POSITION                                       TOTAL-FORCE (eV/Angst)
 -----------------------------------------------------------------------------------
      5.09117      0.00007      1.41861         0.000601     -0.000000     -0.000450
      4.20048      0.00004      0.16634         0.001008     -0.000000     -0.000358
      5.13061      0.00008      0.44766        -0.001609      0.000000      0.000808
 -----------------------------------------------------------------------------------
    total drift:                                0.000093     -0.130277      0.000123


--------------------------------------------------------------------------------------------------------



  FREE ENERGIE OF THE ION-ELECTRON SYSTEM (eV)
  ---------------------------------------------------
  free  energy   TOTEN  =       -14.23382468 eV

  energy  without entropy=      -14.23382468  energy(sigma->0) =      -14.23382468
 
 d Force = 0.6266290E-08[ 0.129E-08, 0.112E-07]  d Energy = 0.1468186E-07-0.842E-08
 d Force =-0.1879813E-02[-0.188E-02,-0.188E-02]  d Ewald  =-0.1879813E-02 0.117E-10


--------------------------------------------------------------------------------------------------------


    POTLOK:  cpu time     13.7657: real time     13.7658


--------------------------------------------------------------------------------------------------------




--------------------------------------------------------------------------------------------------------


    WAVPRE:  cpu time      4.6598: real time      4.6598
    FEWALD:  cpu time      0.0001: real time      0.0001
    ORTHCH:  cpu time      0.1925: real time      0.1925
     LOOP+:  cpu time     88.4552: real time     88.4558


--------------------------------------- Ionic step       16  -------------------------------------------




--------------------------------------- Iteration     16(   1)  ---------------------------------------


    POTLOK:  cpu time     13.6893: real time     13.6893
    SETDIJ:  cpu time      0.0020: real time      0.0020
     EDDAV:  cpu time      6.6984: real time      6.6984
       DOS:  cpu time      0.0001: real time      0.0001
    CHARGE:  cpu time      1.6070: real time      1.6070
    MIXING:  cpu time      0.5612: real time      0.5612
    --------------------------------------------
      LOOP:  cpu time     22.5580: real time     22.5581

 eigenvalue-minimisations  :    24
 total energy-change (2. order) :-0.6218426E-07  (-0.9562118E-06)
 number of electron       8.0000000 magnetization 
 augmentation part        0.6904648 magnetization 

 Broyden mixing:
  rms(total) = 0.73644E-04    rms(broyden)= 0.73641E-04
  rms(prec ) = 0.76788E-04
  weight for this iteration     100.00

 Free energy of the ion-electron system (eV)
  ---------------------------------------------------
  alpha Z        PSCENC =         0.02803141
  Ewald energy   TEWEN  =       121.87563883
  -Hartree energ DENC   =      -515.75554973
  -exchange      EXHF   =         0.00000000
  -V(xc)+E(xc)   XCENC  =        34.02841649
  PAW double counting   =       544.70984943     -546.79056671
  entropy T*S    EENTRO =        -0.00000000
  eigenvalues    EBANDS =      -109.68414504
  atomic energy  EATOM  =       457.35450057
  Solvation  Ediel_sol  =         0.00000000
  ---------------------------------------------------
  free energy    TOTEN  =       -14.23382474 eV

  energy without entropy =      -14.23382474  energy(sigma->0) =      -14.23382474


--------------------------------------------------------------------------------------------------------




--------------------------------------- Iteration     16(   2)  ---------------------------------------


    POTLOK:  cpu time     13.6461: real time     13.6461
    SETDIJ:  cpu time      0.0020: real time      0.0020
     EDDAV:  cpu time      6.7065: real time      6.7065
       DOS:  cpu time      0.0001: real time      0.0001
    --------------------------------------------
      LOOP:  cpu time     20.3545: real time     20.3547

 eigenvalue-minimisations  :    24
 total energy-change (2. order) :-0.7692620E-09  (-0.1048109E-07)
 number of electron       8.0000000 magnetization 
 augmentation part        0.6904648 magnetization 

 Free energy of the ion-electron system (eV)
  ---------------------------------------------------
  alpha Z        PSCENC =         0.02803141
  Ewald energy   TEWEN  =       121.87563883
  -Hartree energ DENC   =      -515.75675300
  -exchange      EXHF   =         0.00000000
  -V(xc)+E(xc)   XCENC  =        34.02848784
  PAW double counting   =       544.71412234     -546.79486427
  entropy T*S    EENTRO =        -0.00000000
  eigenvalues    EBANDS =      -109.68298846
  atomic energy  EATOM  =       457.35450057
  Solvation  Ediel_sol  =         0.00000000
  ---------------------------------------------------
  free energy    TOTEN  =       -14.23382474 eV

  energy without entropy =      -14.23382474  energy(sigma->0) =      -14.23382474


--------------------------------------------------------------------------------------------------------




 average (electrostatic) potential at core
  the test charge radii are     0.5201  0.7215
  (the norm of the test charge is              1.0000)
       1 -44.7119       2 -44.7121       3 -80.5685
 
 
 
 E-fermi :  -6.2610     XC(G=0):  -0.0774     alpha+bet : -0.0163

 Fermi energy:        -6.2610272629

 k-point     1 :       0.0000    0.0000    0.0000
  band No.  band energies     occupation 
      1     -25.2927      2.00000
      2     -13.0951      2.00000
      3      -9.2583      2.00000
      4      -7.1954      2.00000
      5      -0.9852      0.00000
      6       0.0366      0.00000
      7       0.2407      0.00000
      8       0.3283      0.00000


--------------------------------------------------------------------------------------------------------


 soft charge-density along one line, spin component           1
         0         1         2         3         4         5         6         7         8         9
 total charge-density along one line
 
 pseudopotential strength for first ion, spin component:           1
 -2.384  -4.117  -0.000   0.003  -0.000
 -4.117  -7.023  -0.000   0.009  -0.000
 -0.000  -0.000  -0.324  -0.000   0.000
  0.003   0.009  -0.000  -0.314  -0.000
 -0.000  -0.000   0.000  -0.000  -0.323
 total augmentation occupancy for first ion, spin component:           1
  3.739  -0.783   0.000  -0.720   0.018
 -0.783   0.216   0.000   0.146  -0.009
  0.000   0.000   0.041   0.000   0.000
 -0.720   0.146   0.000   0.139  -0.005
  0.018  -0.009   0.000  -0.005   0.027


------------------------ aborting loop because EDIFF is reached ----------------------------------------


    CHARGE:  cpu time      1.6091: real time      1.6091
    FORLOC:  cpu time      1.1774: real time      1.1774
    FORNL :  cpu time      0.4588: real time      0.4588
    STRESS:  cpu time      4.8677: real time      4.8677
    FORCOR:  cpu time     15.5673: real time     15.5673
    FORHAR:  cpu time      4.2105: real time      4.2106
    MIXING:  cpu time      0.5895: real time      0.5895
    OFIELD:  cpu time      0.0000: real time      0.0000

  FORCE on cell =-STRESS in cart. coord.  units (eV):
  Direction    XX          YY          ZZ          XY          YZ          ZX
  --------------------------------------------------------------------------------------
  Alpha Z     0.02803     0.02803     0.02803
  Ewald      62.99171   -21.81647    80.70043     0.00364     0.00029    25.44118
  Hartree   175.95628   160.81534   178.98522     0.00025    -0.00015     4.34270
  E(xc)     -36.06547   -36.42745   -36.00034    -0.00000     0.00000     0.09376
  Local    -322.45683  -248.18560  -338.22108    -0.00125    -0.00092   -22.62566
  n-local   -30.69436   -30.80077   -30.42775     0.00052    -0.00042     0.38363
  augment     6.41467     8.15717     6.09745    -0.00001     0.00002    -0.45617
  Kinetic   143.81894   168.22387   138.83119    -0.00151     0.00018    -7.17965
  Fock        0.00000     0.00000     0.00000     0.00000     0.00000     0.00000
  -------------------------------------------------------------------------------------
  Total      -0.00703    -0.00587    -0.00685     0.00000     0.00000    -0.00021
  in kB      -0.00141    -0.00118    -0.00137     0.00000     0.00000    -0.00004
  external pressure =       -0.00 kB  Pullay stress =        0.00 kB


 VOLUME and BASIS-vectors are now :
 -----------------------------------------------------------------------------
  energy-cutoff  :     1200.00
  volume of cell :     8000.00
      direct lattice vectors                 reciprocal lattice vectors
    20.000000000  0.000000000  0.000000000     0.050000000  0.000000000  0.000000000
     0.000000000 20.000000000  0.000000000     0.000000000  0.050000000  0.000000000
     0.000000000  0.000000000 20.000000000     0.000000000  0.000000000  0.050000000

  length of vectors
    20.000000000 20.000000000 20.000000000     0.050000000  0.050000000  0.050000000


 FORCES acting on ions
    electron-ion (+dipol)            ewald-force                    non-local-force                 convergence-correction
 -----------------------------------------------------------------------------------------------
   0.130E+00 -.855E-02 -.880E+02   -.178E+00 -.822E-03 0.963E+02   0.481E-01 -.136E-19 -.832E+01   0.865E-04 0.325E-07 -.412E-04
   0.832E+02 -.455E-02 0.288E+02   -.911E+02 -.388E-02 -.314E+02   0.788E+01 0.136E-19 0.269E+01   0.454E-04 0.481E-07 -.585E-04
   -.513E+02 -.117E+00 0.365E+02   0.912E+02 0.471E-02 -.649E+02   -.400E+02 -.434E-18 0.284E+02   0.143E-02 -.151E-06 -.547E-03
 -----------------------------------------------------------------------------------------------
   0.320E+02 -.130E+00 -.228E+02   0.000E+00 -.520E-17 -.142E-13   -.320E+02 -.434E-18 0.228E+02   0.156E-02 -.706E-07 -.647E-03
 
 
 POSITION                                       TOTAL-FORCE (eV/Angst)
 -----------------------------------------------------------------------------------
      5.09120      0.00007      1.41862         0.000043      0.000000     -0.000388
      4.20048      0.00004      0.16630         0.000024     -0.000000     -0.000070
      5.13058      0.00008      0.44768        -0.000067     -0.000000      0.000459
 -----------------------------------------------------------------------------------
    total drift:                                0.000009     -0.130278      0.000176


--------------------------------------------------------------------------------------------------------



  FREE ENERGIE OF THE ION-ELECTRON SYSTEM (eV)
  ---------------------------------------------------
  free  energy   TOTEN  =       -14.23382474 eV

  energy  without entropy=      -14.23382474  energy(sigma->0) =      -14.23382474
 
 d Force = 0.5818866E-07[ 0.963E-08, 0.107E-06]  d Energy = 0.5864024E-07-0.452E-09
 d Force =-0.2319220E-02[-0.232E-02,-0.232E-02]  d Ewald  =-0.2319220E-02 0.129E-11


--------------------------------------------------------------------------------------------------------


    POTLOK:  cpu time     13.7005: real time     13.7006


--------------------------------------------------------------------------------------------------------


 Conjugate gradient step on ions:
 trial-energy change:   -0.000000  1 .order   -0.000000   -0.000000   -0.000000
  (g-gl).g = 0.247E-06      g.g   = 0.239E-06  gl.gl    = 0.269E-06
 g(Force)  = 0.239E-06   g(Stress)= 0.000E+00 ortho     =-0.792E-08
 gamma     =   0.91665
 trial     =   0.46120
 opt step  =   0.50693  (harmonic =   0.50693) maximal distance =0.00003715
 next E    =   -14.233825   (d E  =  -0.00000)


--------------------------------------------------------------------------------------------------------


  
 reached required accuracy - stopping structural energy minimisation
 writing wavefunctions
     LOOP+:  cpu time     85.2634: real time     85.2638
    4ORBIT:  cpu time      0.0000: real time      0.0000

 total amount of memory used by VASP MPI-rank0  4712147. kBytes
=======================================================================

   base      :      30000. kBytes
   nonl-proj :     132930. kBytes
   fftplans  :    1595628. kBytes
   grid      :    2856902. kBytes
   one-center:          9. kBytes
   wavefun   :      96678. kBytes
 
  
  
 General timing and accounting informations for this job:
 ========================================================
  
                  Total CPU time used (sec):     3103.136
                            User time (sec):     2920.363
                          System time (sec):      182.773
                         Elapsed time (sec):     3103.531
  
                   Maximum memory used (kb):     7322560.
                   Average memory used (kb):          N/A
  
                          Minor page faults:    182372950
                          Major page faults:            0
                 Voluntary context switches:          568
