 vasp.6.4.1 05Apr23 (build Jun 06 2023 10:26:43) complex                        
  
 executed on             LinuxIFC date 2023.06.30  13:12:15
 running    1 mpi-ranks, on    1 nodes
 distrk:  each k-point on    1 cores,    1 groups
 distr:  one band on NCORE=   1 cores,    1 groups


--------------------------------------------------------------------------------------------------------


 INCAR:
   SYSTEM = BN
   GGA = PE
   ISMEAR = 0
   EDIFF = 1.0E-6
   EDIFFG = -1.0E-3
   KPAR = 1
   NCSHMEM = -1
   PREC = Normal
   NCORE = 4
   IBRION = 2
   POTIM = 0.5
   NSW = 101
   ENCUT = 1300

 POTCAR:    PAW_PBE H 15Jun2001                   
 POTCAR:    PAW_PBE O 08Apr2002                   
 -----------------------------------------------------------------------------
|                                                                             |
|           W    W    AA    RRRRR   N    N  II  N    N   GGGG   !!!           |
|           W    W   A  A   R    R  NN   N  II  NN   N  G    G  !!!           |
|           W    W  A    A  R    R  N N  N  II  N N  N  G       !!!           |
|           W WW W  AAAAAA  RRRRR   N  N N  II  N  N N  G  GGG   !            |
|           WW  WW  A    A  R   R   N   NN  II  N   NN  G    G                |
|           W    W  A    A  R    R  N    N  II  N    N   GGGG   !!!           |
|                                                                             |
|     The value NCORE = 4 specified in the INCAR file was overwritten,        |
|     because it was not compatible with the 1 processes available:           |
|     NCORE = 1                                                               |
|     was used instead, please check that this makes sense for your           |
|     machine.                                                                |
|                                                                             |
 -----------------------------------------------------------------------------

 POTCAR:    PAW_PBE H 15Jun2001                   
   VRHFIN =H: ultrasoft test                                                                        
   LEXCH  = PE                                                                                      
   EATOM  =    12.4884 eV,    0.9179 Ry                                                             
                                                                                                    
   TITEL  = PAW_PBE H 15Jun2001                                                                     
   LULTRA =        F    use ultrasoft PP ?                                                          
   IUNSCR =        0    unscreen: 0-lin 1-nonlin 2-no                                               
   RPACOR =    0.000    partial core radius                                                         
   POMASS =    1.000; ZVAL   =    1.000    mass and valenz                                          
   RCORE  =    1.100    outmost cutoff radius                                                       
   RWIGS  =    0.700; RWIGS  =    0.370    wigner-seitz radius (au A)                               
   ENMAX  =  250.000; ENMIN  =  200.000 eV                                                          
   RCLOC  =    0.701    cutoff for local pot                                                        
   LCOR   =        T    correct aug charges                                                         
   LPAW   =        T    paw PP                                                                      
   EAUG   =  400.000                                                                                
   RMAX   =    1.123    core radius for proj-oper                                                   
   RAUG   =    1.200    factor for augmentation sphere                                              
   RDEP   =    1.112    radius for radial grids                                                     
   RDEPT  =    0.926    core radius for aug-charge                                                  
                                                                                                    
   Atomic configuration                                                                             
    2 entries                                                                                       
     n  l   j            E        occ.                                                              
     1  0  0.50        -6.4927   1.0000                                                             
     2  1  0.50        -3.4015   0.0000                                                             
   Description                                                                                      
     l       E           TYP  RCUT    TYP  RCUT                                                     
     0     -6.4927494     23  1.100                                                                 
     0      6.8029130     23  1.100                                                                 
     1     -4.0817478     23  1.100                                                                 
  local pseudopotential read in
  atomic valenz-charges read in
  non local Contribution for L=           0  read in
    real space projection operators read in
  non local Contribution for L=           0  read in
    real space projection operators read in
  non local Contribution for L=           1  read in
    real space projection operators read in
    PAW grid and wavefunctions read in
 
   number of l-projection  operators is LMAX  =           3
   number of lm-projection operators is LMMAX =           5
 
 POTCAR:    PAW_PBE O 08Apr2002                   
   VRHFIN =O: s2p4                                                                                  
   LEXCH  = PE                                                                                      
   EATOM  =   432.3788 eV,   31.7789 Ry                                                             
                                                                                                    
   TITEL  = PAW_PBE O 08Apr2002                                                                     
   LULTRA =        F    use ultrasoft PP ?                                                          
   IUNSCR =        1    unscreen: 0-lin 1-nonlin 2-no                                               
   RPACOR =    1.200    partial core radius                                                         
   POMASS =   16.000; ZVAL   =    6.000    mass and valenz                                          
   RCORE  =    1.520    outmost cutoff radius                                                       
   RWIGS  =    1.550; RWIGS  =    0.820    wigner-seitz radius (au A)                               
   ENMAX  =  400.000; ENMIN  =  300.000 eV                                                          
   ICORE  =        2    local potential                                                             
   LCOR   =        T    correct aug charges                                                         
   LPAW   =        T    paw PP                                                                      
   EAUG   =  605.392                                                                                
   DEXC   =    0.000                                                                                
   RMAX   =    1.553    core radius for proj-oper                                                   
   RAUG   =    1.300    factor for augmentation sphere                                              
   RDEP   =    1.550    radius for radial grids                                                     
   RDEPT  =    1.329    core radius for aug-charge                                                  
                                                                                                    
   Atomic configuration                                                                             
    4 entries                                                                                       
     n  l   j            E        occ.                                                              
     1  0  0.50      -514.6923   2.0000                                                             
     2  0  0.50       -23.9615   2.0000                                                             
     2  1  0.50        -9.0305   4.0000                                                             
     3  2  1.50        -9.5241   0.0000                                                             
   Description                                                                                      
     l       E           TYP  RCUT    TYP  RCUT                                                     
     0    -23.9615318     23  1.200                                                                 
     0     -9.5240782     23  1.200                                                                 
     1     -9.0304911     23  1.520                                                                 
     1      8.1634956     23  1.520                                                                 
     2     -9.5240782      7  1.500                                                                 
  local pseudopotential read in
  partial core-charges read in
  partial kinetic energy density read in
  kinetic energy density of atom read in
  atomic valenz-charges read in
  non local Contribution for L=           0  read in
    real space projection operators read in
  non local Contribution for L=           0  read in
    real space projection operators read in
  non local Contribution for L=           1  read in
    real space projection operators read in
  non local Contribution for L=           1  read in
    real space projection operators read in
    PAW grid and wavefunctions read in
 
   number of l-projection  operators is LMAX  =           4
   number of lm-projection operators is LMMAX =           8
 
  PAW_PBE H 15Jun2001                   :
 energy of atom  1       EATOM=  -12.4884
 kinetic energy error for atom=    0.0000 (will be added to EATOM!!)
  PAW_PBE O 08Apr2002                   :
 energy of atom  2       EATOM= -432.3788
 kinetic energy error for atom=    0.0007 (will be added to EATOM!!)
 
 
 POSCAR: Water molecule
  positions in cartesian coordinates
  No initial velocities read in
 exchange correlation table for  LEXCH =        8
   RHO(1)=    0.500       N(1)  =     2000
   RHO(2)=  100.500       N(2)  =     4000
 


--------------------------------------------------------------------------------------------------------


 ion  position               nearest neighbor table
   1  0.255  0.000  0.072-   3 1.00
   2  0.209  0.000  0.007-   3 1.00
   3  0.257  0.000  0.022-   1 1.00   2 1.00
 
  LATTYP: Found a simple cubic cell.
 ALAT       =    20.0000000000
  
  Lattice vectors:
  
 A1 = (  20.0000000000,   0.0000000000,   0.0000000000)
 A2 = (   0.0000000000,  20.0000000000,   0.0000000000)
 A3 = (   0.0000000000,   0.0000000000,  20.0000000000)


Analysis of symmetry for initial positions (statically):
=====================================================================
 Subroutine PRICEL returns:
 Original cell was already a primitive cell.
 

 Routine SETGRP: Setting up the symmetry group for a 
 simple cubic supercell.


 Subroutine GETGRP returns: Found  2 space group operations
 (whereof  2 operations were pure point group operations)
 out of a pool of 48 trial point group operations.


The static configuration has the point symmetry C_1h.


Analysis of symmetry for dynamics (positions and initial velocities):
=====================================================================
 Subroutine PRICEL returns:
 Original cell was already a primitive cell.
 

 Routine SETGRP: Setting up the symmetry group for a 
 simple cubic supercell.


 Subroutine GETGRP returns: Found  2 space group operations
 (whereof  2 operations were pure point group operations)
 out of a pool of 48 trial point group operations.


The dynamic configuration has the point symmetry C_1h.


 Subroutine INISYM returns: Found  2 space group operations
 (whereof  2 operations are pure point group operations),
 and found     1 'primitive' translations


----------------------------------------------------------------------------------------

                                     Primitive cell                                     

  volume of cell :    8000.0000

  direct lattice vectors                    reciprocal lattice vectors
    20.000000000  0.000000000  0.000000000     0.050000000  0.000000000  0.000000000
     0.000000000 20.000000000  0.000000000     0.000000000  0.050000000  0.000000000
     0.000000000  0.000000000 20.000000000     0.000000000  0.000000000  0.050000000

  length of vectors
    20.000000000 20.000000000 20.000000000     0.050000000  0.050000000  0.050000000

  position of ions in fractional coordinates (direct lattice)
     0.255395500  0.000003500  0.072266000
     0.209022500  0.000002000  0.007084000
     0.256695000  0.000004000  0.022280500

  ion indices of the primitive-cell ions
   primitive index   ion index
                 1           1
                 2           2
                 3           3

----------------------------------------------------------------------------------------

 
 
 KPOINTS: Automatically generated mesh            

Automatic generation of k-mesh.
 Grid dimensions read from file:
 generate k-points for:    1    1    1

 Generating k-lattice:

  Cartesian coordinates                     Fractional coordinates (reciprocal lattice)
     0.050000000  0.000000000  0.000000000     1.000000000  0.000000000  0.000000000
     0.000000000  0.050000000  0.000000000     0.000000000  1.000000000  0.000000000
     0.000000000  0.000000000  0.050000000     0.000000000  0.000000000  1.000000000

  Length of vectors
     0.050000000  0.050000000  0.050000000

  Shift w.r.t. Gamma in fractional coordinates (k-lattice)
     0.000000000  0.000000000  0.000000000

 
 Subroutine IBZKPT returns following result:
 ===========================================
 
 Found      1 irreducible k-points:
 
 Following reciprocal coordinates:
            Coordinates               Weight
  0.000000  0.000000  0.000000      1.000000
 
 Following cartesian coordinates:
            Coordinates               Weight
  0.000000  0.000000  0.000000      1.000000
 


--------------------------------------------------------------------------------------------------------




 Dimension of arrays:
   k-points           NKPTS =      1   k-points in BZ     NKDIM =      1   number of bands    NBANDS=      8
   number of dos      NEDOS =    301   number of ions     NIONS =      3
   non local maximal  LDIM  =      4   non local SUM 2l+1 LMDIM =      8
   total plane-waves  NPLWV = ******
   max r-space proj   IRMAX =      1   max aug-charges    IRDMAX=   9656
   dimension x,y,z NGX =   180 NGY =  180 NGZ =  180
   dimension x,y,z NGXF=   360 NGYF=  360 NGZF=  360
   support grid    NGXF=   360 NGYF=  360 NGZF=  360
   ions per type =               2   1
   NGX,Y,Z   is equivalent  to a cutoff of  14.96, 14.96, 14.96 a.u.
   NGXF,Y,Z  is equivalent  to a cutoff of  29.92, 29.92, 29.92 a.u.

 SYSTEM =  BN                                      
 POSCAR =  Water molecule                          

 Startparameter for this run:
   NWRITE =      2    write-flag & timer
   PREC   = normal    normal or accurate (medium, high low for compatibility)
   ISTART =      1    job   : 0-new  1-cont  2-samecut
   ICHARG =      0    charge: 1-file 2-atom 10-const
   ISPIN  =      1    spin polarized calculation?
   LNONCOLLINEAR =      F non collinear calculations
   LSORBIT =      F    spin-orbit coupling
   INIWAV =      1    electr: 0-lowe 1-rand  2-diag
   LASPH  =      F    aspherical Exc in radial PAW
 Electronic Relaxation 1
   ENCUT  = 1300.0 eV  95.55 Ry    9.77 a.u.  58.80 58.80 58.80*2*pi/ulx,y,z
   ENINI  = 1300.0     initial cutoff
   ENAUG  =  605.4 eV  augmentation charge cutoff
   NELM   =     60;   NELMIN=  2; NELMDL=  0     # of ELM steps 
   EDIFF  = 0.1E-05   stopping-criterion for ELM
   LREAL  =      F    real-space projection
   NLSPLINE    = F    spline interpolate recip. space projectors
   LCOMPAT=      F    compatible to vasp.4.4
   GGA_COMPAT  = T    GGA compatible to vasp.4.4-vasp.4.6
   LMAXPAW     = -100 max onsite density
   LMAXMIX     =    2 max onsite mixed and CHGCAR
   VOSKOWN=      0    Vosko Wilk Nusair interpolation
   ROPT   =    0.00000   0.00000
 Ionic relaxation
   EDIFFG = -.1E-02   stopping-criterion for IOM
   NSW    =    101    number of steps for IOM
   NBLOCK =      1;   KBLOCK =    101    inner block; outer block 
   IBRION =      2    ionic relax: 0-MD 1-quasi-New 2-CG
   NFREE  =      1    steps in history (QN), initial steepest desc. (CG)
   ISIF   =      2    stress and relaxation
   IWAVPR =     11    prediction:  0-non 1-charg 2-wave 3-comb
   ISYM   =      2    0-nonsym 1-usesym 2-fastsym
   LCORR  =      T    Harris-Foulkes like correction to forces

   POTIM  = 0.5000    time-step for ionic-motion
   TEIN   =    0.0    initial temperature
   TEBEG  =    0.0;   TEEND  =   0.0 temperature during run
   SMASS  =  -3.00    Nose mass-parameter (am)
   estimated Nose-frequenzy (Omega)   =  0.10E-29 period in steps = 0.13E+47 mass=  -0.914E-26a.u.
   SCALEE = 1.0000    scale energy and forces
   NPACO  =    256;   APACO  = 10.0  distance and # of slots for P.C.
   PSTRESS=    0.0 pullay stress

  Mass of Ions in am
   POMASS =   1.00 16.00
  Ionic Valenz
   ZVAL   =   1.00  6.00
  Atomic Wigner-Seitz radii
   RWIGS  =  -1.00 -1.00
  virtual crystal weights 
   VCA    =   1.00  1.00
   NELECT =       8.0000    total number of electrons
   NUPDOWN=      -1.0000    fix difference up-down

 DOS related values:
   EMIN   =  10.00;   EMAX   =-10.00  energy-range for DOS
   EFERMI =   0.00;   METHOD = LEGACY      
   ISMEAR =     0;   SIGMA  =   0.20  broadening in eV -4-tet -1-fermi 0-gaus

 Electronic relaxation 2 (details)
   IALGO  =     38    algorithm
   LDIAG  =      T    sub-space diagonalisation (order eigenvalues)
   LSUBROT=      F    optimize rotation matrix (better conditioning)
   TURBO    =      0    0=normal 1=particle mesh
   IRESTART =      0    0=no restart 2=restart with 2 vectors
   NREBOOT  =      0    no. of reboots
   NMIN     =      0    reboot dimension
   EREF     =   0.00    reference energy to select bands
   IMIX   =      4    mixing-type and parameters
     AMIX     =   0.40;   BMIX     =  1.00
     AMIX_MAG =   1.60;   BMIX_MAG =  1.00
     AMIN     =   0.10
     WC   =   100.;   INIMIX=   1;  MIXPRE=   1;  MAXMIX= -45

 Intra band minimization:
   WEIMIN = 0.0010     energy-eigenvalue tresh-hold
   EBREAK =  0.31E-07  absolut break condition
   DEPER  =   0.30     relativ break condition  

   TIME   =   0.40     timestep for ELM

  volume/ion in A,a.u.               =    2666.67     17995.55
  Fermi-wavevector in a.u.,A,eV,Ry     =   0.163710  0.309367  0.364649  0.026801
  Thomas-Fermi vector in A             =   0.862763
 
 Write flags
   LWAVE        =      T    write WAVECAR
   LDOWNSAMPLE  =      F    k-point downsampling of WAVECAR
   LCHARG       =      T    write CHGCAR
   LVTOT        =      F    write LOCPOT, total local potential
   LVHAR        =      F    write LOCPOT, Hartree potential only
   LELF         =      F    write electronic localiz. function (ELF)
   LORBIT       =      0    0 simple, 1 ext, 2 COOP (PROOUT), +10 PAW based schemes


 Dipole corrections
   LMONO  =      F    monopole corrections only (constant potential shift)
   LDIPOL =      F    correct potential (dipole corrections)
   IDIPOL =      0    1-x, 2-y, 3-z, 4-all directions 
   EPSILON=  1.0000000 bulk dielectric constant

 Exchange correlation treatment:
   GGA     =    PE    GGA type
   LEXCH   =     8    internal setting for exchange type
   LIBXC   =     F    Libxc                    
   VOSKOWN =     0    Vosko Wilk Nusair interpolation
   LHFCALC =     F    Hartree Fock is set to
   LHFONE  =     F    Hartree Fock one center treatment
   AEXX    =    0.0000 exact exchange contribution

 Linear response parameters
   LEPSILON=     F    determine dielectric tensor
   LRPA    =     F    only Hartree local field effects (RPA)
   LNABLA  =     F    use nabla operator in PAW spheres
   LVEL    =     F    velocity operator in full k-point grid
   CSHIFT  =0.1000    complex shift for real part using Kramers Kronig
   OMEGAMAX=  -1.0    maximum frequency
   DEG_THRESHOLD= 0.2000000E-02 threshold for treating states as degnerate
   RTIME   =   -0.100 relaxation time in fs
  (WPLASMAI=    0.000 imaginary part of plasma frequency in eV, 0.658/RTIME)
   DFIELD  = 0.0000000 0.0000000 0.0000000 field for delta impulse in time
 
  Optional k-point grid parameters
   LKPOINTS_OPT  =     F    use optional k-point grid
   KPOINTS_OPT_MODE=     1    mode for optional k-point grid
 
 Orbital magnetization related:
   ORBITALMAG=     F  switch on orbital magnetization
   LCHIMAG   =     F  perturbation theory with respect to B field
   DQ        =  0.001000  dq finite difference perturbation B field
   LLRAUG    =     F  two centre corrections for induced B field
   LBONE     =     F  B-component reconstruction in AE one-centre
   LVGVCALC  =     T  calculate vGv susceptibility
   LVGVAPPL  =     F  apply vGv susceptibility instead of pGv for G=0

 Random number generation:
   RANDOM_GENERATOR = DEFAULT
   PCG_SEED         = not used


--------------------------------------------------------------------------------------------------------


 conjugate gradient relaxation of ions
 charge density and potential will be updated during run
 non-spin polarized calculation
 Variant of blocked Davidson
 Davidson routine will perform the subspace rotation
 perform sub-space diagonalisation
    after iterative eigenvector-optimisation
 modified Broyden-mixing scheme, WC =      100.0
 initial mixing is a Kerker type mixing with AMIX =  0.4000 and BMIX =      1.0000
 Hartree-type preconditioning will be used
 using additional bands            4
 reciprocal scheme for non local part
 use partial core corrections
 calculate Harris-corrections to forces 
   (improved forces if not selfconsistent)
 use gradient corrections 
 use of overlap-Matrix (Vanderbilt PP)
 Gauss-broadening in eV      SIGMA  =   0.20


--------------------------------------------------------------------------------------------------------


  energy-cutoff  :     1300.00
  volume of cell :     8000.00
      direct lattice vectors                 reciprocal lattice vectors
    20.000000000  0.000000000  0.000000000     0.050000000  0.000000000  0.000000000
     0.000000000 20.000000000  0.000000000     0.000000000  0.050000000  0.000000000
     0.000000000  0.000000000 20.000000000     0.000000000  0.000000000  0.050000000

  length of vectors
    20.000000000 20.000000000 20.000000000     0.050000000  0.050000000  0.050000000


 
 old parameters found on file WAVECAR:
  energy-cutoff  :     1200.00
  volume of cell :     8000.00
      direct lattice vectors                 reciprocal lattice vectors
    20.000000000  0.000000000  0.000000000     0.050000000  0.000000000  0.000000000
     0.000000000 20.000000000  0.000000000     0.000000000  0.050000000  0.000000000
     0.000000000  0.000000000 20.000000000     0.000000000  0.000000000  0.050000000

  length of vectors

 
 k-points in units of 2pi/SCALE and weight: Automatically generated mesh            
   0.00000000  0.00000000  0.00000000       1.000
 
 k-points in reciprocal lattice and weights: Automatically generated mesh            
   0.00000000  0.00000000  0.00000000       1.000
 
 position of ions in fractional coordinates (direct lattice) 
   0.25539550  0.00000350  0.07226600
   0.20902250  0.00000200  0.00708400
   0.25669500  0.00000400  0.02228050
 
 position of ions in cartesian coordinates  (Angst):
   5.10791000  0.00007000  1.44532000
   4.18045000  0.00004000  0.14168000
   5.13390000  0.00008000  0.44561000
 


--------------------------------------------------------------------------------------------------------


 k-point   1 :   0.0000 0.0000 0.0000  plane waves:  851137

 maximum and minimum number of plane-waves per node :    851137   851137

 maximum number of plane-waves:    851137
 maximum index in each direction: 
   IXMAX=   58   IYMAX=   58   IZMAX=   58
   IXMIN=  -58   IYMIN=  -58   IZMIN=  -58


 serial   3D FFT for wavefunctions
 parallel 3D FFT for charge:
    minimum data exchange during FFTs selected (reduces bandwidth)


 total amount of memory used by VASP MPI-rank0  4741286. kBytes
=======================================================================

   base      :      30000. kBytes
   nonl-proj :     149800. kBytes
   fftplans  :    1595628. kBytes
   grid      :    2856902. kBytes
   one-center:          9. kBytes
   wavefun   :     108947. kBytes
 
     INWAV:  cpu time      0.2074: real time      0.2074
 Broyden mixing: mesh for mixing (old mesh)
   NGX =117   NGY =117   NGZ =117
  (NGX  =360   NGY  =360   NGZ  =360)
  gives a total of ****** points

 charge density for first step will be calculated from the start-wavefunctions


--------------------------------------------------------------------------------------------------------


 Maximum index for augmentation-charges         9144 (set IRDMAX)


--------------------------------------------------------------------------------------------------------


 initial charge from wavefunction
 First call to EWALD:  gamma=   0.089
 Maximum number of real-space cells 3x 3x 3
 Maximum number of reciprocal cells 3x 3x 3

    FEWALD:  cpu time      0.0008: real time      0.0008


--------------------------------------- Ionic step        1  -------------------------------------------




--------------------------------------- Iteration      1(   1)  ---------------------------------------


    POTLOK:  cpu time     15.5048: real time     15.5134
    SETDIJ:  cpu time      0.0020: real time      0.0020
     EDDAV:  cpu time      5.4642: real time      5.4685
       DOS:  cpu time      0.0001: real time      0.0001
    CHARGE:  cpu time      1.6984: real time      1.6999
    MIXING:  cpu time      0.5714: real time      0.5720
    --------------------------------------------
      LOOP:  cpu time     23.2409: real time     23.2560

 eigenvalue-minimisations  :    16
 total energy-change (2. order) :-0.1423170E+02  (-0.1523141E+00)
 number of electron       8.0000000 magnetization 
 augmentation part        0.6683555 magnetization 

 Broyden mixing:
  rms(total) = 0.11420E+00    rms(broyden)= 0.11420E+00
  rms(prec ) = 0.12352E+00
  weight for this iteration     100.00

 Free energy of the ion-electron system (eV)
  ---------------------------------------------------
  alpha Z        PSCENC =         0.02803141
  Ewald energy   TEWEN  =       116.41630449
  -Hartree energ DENC   =      -515.54592746
  -exchange      EXHF   =         0.00000000
  -V(xc)+E(xc)   XCENC  =        34.01793716
  PAW double counting   =       540.54617851     -542.60621908
  entropy T*S    EENTRO =        -0.00000000
  eigenvalues    EBANDS =      -104.44288352
  atomic energy  EATOM  =       457.35487982
  Solvation  Ediel_sol  =         0.00000000
  ---------------------------------------------------
  free energy    TOTEN  =       -14.23169867 eV

  energy without entropy =      -14.23169867  energy(sigma->0) =      -14.23169867


--------------------------------------------------------------------------------------------------------




--------------------------------------- Iteration      1(   2)  ---------------------------------------


    POTLOK:  cpu time     13.9719: real time     13.9794
    SETDIJ:  cpu time      0.0020: real time      0.0020
     EDDAV:  cpu time      6.9806: real time      6.9815
       DOS:  cpu time      0.0001: real time      0.0001
    CHARGE:  cpu time      1.5949: real time      1.5949
    MIXING:  cpu time      0.6057: real time      0.6057
    --------------------------------------------
      LOOP:  cpu time     23.1552: real time     23.1636

 eigenvalue-minimisations  :    24
 total energy-change (2. order) : 0.3395757E-01  (-0.1122454E-01)
 number of electron       8.0000000 magnetization 
 augmentation part        0.6775786 magnetization 

 Broyden mixing:
  rms(total) = 0.47257E-01    rms(broyden)= 0.47257E-01
  rms(prec ) = 0.50563E-01
  weight for this iteration     100.00

 eigenvalues of (default mixing * dielectric matrix)
  average eigenvalue GAMMA=   1.2999
  1.2999

 Free energy of the ion-electron system (eV)
  ---------------------------------------------------
  alpha Z        PSCENC =         0.02803141
  Ewald energy   TEWEN  =       116.41630449
  -Hartree energ DENC   =      -512.73289492
  -exchange      EXHF   =         0.00000000
  -V(xc)+E(xc)   XCENC  =        33.86687934
  PAW double counting   =       532.77724224     -534.82003552
  entropy T*S    EENTRO =        -0.00000000
  eigenvalues    EBANDS =      -107.08814796
  atomic energy  EATOM  =       457.35487982
  Solvation  Ediel_sol  =         0.00000000
  ---------------------------------------------------
  free energy    TOTEN  =       -14.19774111 eV

  energy without entropy =      -14.19774111  energy(sigma->0) =      -14.19774111


--------------------------------------------------------------------------------------------------------




--------------------------------------- Iteration      1(   3)  ---------------------------------------


    POTLOK:  cpu time     13.7618: real time     13.7618
    SETDIJ:  cpu time      0.0020: real time      0.0020
     EDDAV:  cpu time      6.9721: real time      6.9721
       DOS:  cpu time      0.0001: real time      0.0001
    CHARGE:  cpu time      1.5939: real time      1.5939
    MIXING:  cpu time      0.6280: real time      0.6280
    --------------------------------------------
      LOOP:  cpu time     22.9579: real time     22.9579

 eigenvalue-minimisations  :    24
 total energy-change (2. order) : 0.5610334E-02  (-0.1352209E-02)
 number of electron       8.0000000 magnetization 
 augmentation part        0.6798474 magnetization 

 Broyden mixing:
  rms(total) = 0.20136E-01    rms(broyden)= 0.20136E-01
  rms(prec ) = 0.21278E-01
  weight for this iteration     100.00

 eigenvalues of (default mixing * dielectric matrix)
  average eigenvalue GAMMA=   1.5661
  1.2843  1.8480

 Free energy of the ion-electron system (eV)
  ---------------------------------------------------
  alpha Z        PSCENC =         0.02803141
  Ewald energy   TEWEN  =       116.41630449
  -Hartree energ DENC   =      -511.90178016
  -exchange      EXHF   =         0.00000000
  -V(xc)+E(xc)   XCENC  =        33.82683056
  PAW double counting   =       529.25085049     -531.29701385
  entropy T*S    EENTRO =        -0.00000000
  eigenvalues    EBANDS =      -107.87023353
  atomic energy  EATOM  =       457.35487982
  Solvation  Ediel_sol  =         0.00000000
  ---------------------------------------------------
  free energy    TOTEN  =       -14.19213077 eV

  energy without entropy =      -14.19213077  energy(sigma->0) =      -14.19213077


--------------------------------------------------------------------------------------------------------




--------------------------------------- Iteration      1(   4)  ---------------------------------------


    POTLOK:  cpu time     13.6273: real time     13.6279
    SETDIJ:  cpu time      0.0020: real time      0.0020
     EDDAV:  cpu time      6.9711: real time      6.9711
       DOS:  cpu time      0.0001: real time      0.0001
    CHARGE:  cpu time      1.5939: real time      1.5939
    MIXING:  cpu time      0.6521: real time      0.6521
    --------------------------------------------
      LOOP:  cpu time     22.8465: real time     22.8470

 eigenvalue-minimisations  :    24
 total energy-change (2. order) : 0.5587997E-03  (-0.3797736E-03)
 number of electron       8.0000000 magnetization 
 augmentation part        0.6780398 magnetization 

 Broyden mixing:
  rms(total) = 0.54437E-02    rms(broyden)= 0.54437E-02
  rms(prec ) = 0.60357E-02
  weight for this iteration     100.00

 eigenvalues of (default mixing * dielectric matrix)
  average eigenvalue GAMMA=   1.4661
  2.1549  1.1216  1.1216

 Free energy of the ion-electron system (eV)
  ---------------------------------------------------
  alpha Z        PSCENC =         0.02803141
  Ewald energy   TEWEN  =       116.41630449
  -Hartree energ DENC   =      -511.83513786
  -exchange      EXHF   =         0.00000000
  -V(xc)+E(xc)   XCENC  =        33.82736552
  PAW double counting   =       527.99468458     -530.04844388
  entropy T*S    EENTRO =        -0.00000000
  eigenvalues    EBANDS =      -107.92925604
  atomic energy  EATOM  =       457.35487982
  Solvation  Ediel_sol  =         0.00000000
  ---------------------------------------------------
  free energy    TOTEN  =       -14.19157197 eV

  energy without entropy =      -14.19157197  energy(sigma->0) =      -14.19157197


--------------------------------------------------------------------------------------------------------




--------------------------------------- Iteration      1(   5)  ---------------------------------------


    POTLOK:  cpu time     13.5780: real time     13.5780
    SETDIJ:  cpu time      0.0020: real time      0.0020
     EDDAV:  cpu time      8.7683: real time      8.7684
       DOS:  cpu time      0.0001: real time      0.0001
    CHARGE:  cpu time      1.5944: real time      1.5944
    MIXING:  cpu time      0.6779: real time      0.6779
    --------------------------------------------
      LOOP:  cpu time     24.6206: real time     24.6207

 eigenvalue-minimisations  :    32
 total energy-change (2. order) :-0.2969065E-04  (-0.7673464E-04)
 number of electron       8.0000000 magnetization 
 augmentation part        0.6793015 magnetization 

 Broyden mixing:
  rms(total) = 0.33916E-02    rms(broyden)= 0.33916E-02
  rms(prec ) = 0.36570E-02
  weight for this iteration     100.00

 eigenvalues of (default mixing * dielectric matrix)
  average eigenvalue GAMMA=   1.5625
  2.4029  1.9182  1.1454  0.7837

 Free energy of the ion-electron system (eV)
  ---------------------------------------------------
  alpha Z        PSCENC =         0.02803141
  Ewald energy   TEWEN  =       116.41630449
  -Hartree energ DENC   =      -511.61008737
  -exchange      EXHF   =         0.00000000
  -V(xc)+E(xc)   XCENC  =        33.81634673
  PAW double counting   =       527.56946217     -529.62079116
  entropy T*S    EENTRO =        -0.00000000
  eigenvalues    EBANDS =      -108.14574775
  atomic energy  EATOM  =       457.35487982
  Solvation  Ediel_sol  =         0.00000000
  ---------------------------------------------------
  free energy    TOTEN  =       -14.19160167 eV

  energy without entropy =      -14.19160167  energy(sigma->0) =      -14.19160167


--------------------------------------------------------------------------------------------------------




--------------------------------------- Iteration      1(   6)  ---------------------------------------


    POTLOK:  cpu time     13.5075: real time     13.5075
    SETDIJ:  cpu time      0.0020: real time      0.0020
     EDDAV:  cpu time      8.7647: real time      8.7647
       DOS:  cpu time      0.0001: real time      0.0001
    CHARGE:  cpu time      1.5936: real time      1.5937
    MIXING:  cpu time      0.7153: real time      0.7152
    --------------------------------------------
      LOOP:  cpu time     24.5831: real time     24.5832

 eigenvalue-minimisations  :    32
 total energy-change (2. order) :-0.9659262E-04  (-0.3454100E-05)
 number of electron       8.0000000 magnetization 
 augmentation part        0.6791969 magnetization 

 Broyden mixing:
  rms(total) = 0.10703E-02    rms(broyden)= 0.10703E-02
  rms(prec ) = 0.12951E-02
  weight for this iteration     100.00

 eigenvalues of (default mixing * dielectric matrix)
  average eigenvalue GAMMA=   1.5076
  2.5256  1.9427  1.0671  1.0671  0.9356

 Free energy of the ion-electron system (eV)
  ---------------------------------------------------
  alpha Z        PSCENC =         0.02803141
  Ewald energy   TEWEN  =       116.41630449
  -Hartree energ DENC   =      -511.57157409
  -exchange      EXHF   =         0.00000000
  -V(xc)+E(xc)   XCENC  =        33.81557539
  PAW double counting   =       527.71395316     -529.76587471
  entropy T*S    EENTRO =        -0.00000000
  eigenvalues    EBANDS =      -108.18299373
  atomic energy  EATOM  =       457.35487982
  Solvation  Ediel_sol  =         0.00000000
  ---------------------------------------------------
  free energy    TOTEN  =       -14.19169826 eV

  energy without entropy =      -14.19169826  energy(sigma->0) =      -14.19169826


--------------------------------------------------------------------------------------------------------




--------------------------------------- Iteration      1(   7)  ---------------------------------------


    POTLOK:  cpu time     13.4580: real time     13.4581
    SETDIJ:  cpu time      0.0021: real time      0.0021
     EDDAV:  cpu time      8.7554: real time      8.7554
       DOS:  cpu time      0.0001: real time      0.0001
    CHARGE:  cpu time      1.5932: real time      1.5932
    MIXING:  cpu time      0.7463: real time      0.7463
    --------------------------------------------
      LOOP:  cpu time     24.5550: real time     24.5551

 eigenvalue-minimisations  :    32
 total energy-change (2. order) :-0.3773151E-04  (-0.1672337E-05)
 number of electron       8.0000000 magnetization 
 augmentation part        0.6790137 magnetization 

 Broyden mixing:
  rms(total) = 0.34040E-03    rms(broyden)= 0.34039E-03
  rms(prec ) = 0.60235E-03
  weight for this iteration     100.00

 eigenvalues of (default mixing * dielectric matrix)
  average eigenvalue GAMMA=   1.7304
  3.0961  2.3683  1.9544  0.9896  0.9896  0.9843

 Free energy of the ion-electron system (eV)
  ---------------------------------------------------
  alpha Z        PSCENC =         0.02803141
  Ewald energy   TEWEN  =       116.41630449
  -Hartree energ DENC   =      -511.57235644
  -exchange      EXHF   =         0.00000000
  -V(xc)+E(xc)   XCENC  =        33.81614550
  PAW double counting   =       527.80935491     -529.86188146
  entropy T*S    EENTRO =        -0.00000000
  eigenvalues    EBANDS =      -108.18221421
  atomic energy  EATOM  =       457.35487982
  Solvation  Ediel_sol  =         0.00000000
  ---------------------------------------------------
  free energy    TOTEN  =       -14.19173599 eV

  energy without entropy =      -14.19173599  energy(sigma->0) =      -14.19173599


--------------------------------------------------------------------------------------------------------




--------------------------------------- Iteration      1(   8)  ---------------------------------------


    POTLOK:  cpu time     13.3587: real time     13.3587
    SETDIJ:  cpu time      0.0020: real time      0.0020
     EDDAV:  cpu time      6.9640: real time      6.9640
       DOS:  cpu time      0.0001: real time      0.0001
    CHARGE:  cpu time      1.5930: real time      1.5930
    MIXING:  cpu time      0.7846: real time      0.7845
    --------------------------------------------
      LOOP:  cpu time     22.7023: real time     22.7024

 eigenvalue-minimisations  :    24
 total energy-change (2. order) :-0.6099809E-04  (-0.1579153E-05)
 number of electron       8.0000000 magnetization 
 augmentation part        0.6790446 magnetization 

 Broyden mixing:
  rms(total) = 0.17817E-03    rms(broyden)= 0.17817E-03
  rms(prec ) = 0.28238E-03
  weight for this iteration     100.00

 eigenvalues of (default mixing * dielectric matrix)
  average eigenvalue GAMMA=   1.7255
  3.6646  2.4917  1.8298  1.2609  0.9897  0.9897  0.8520

 Free energy of the ion-electron system (eV)
  ---------------------------------------------------
  alpha Z        PSCENC =         0.02803141
  Ewald energy   TEWEN  =       116.41630449
  -Hartree energ DENC   =      -511.52317787
  -exchange      EXHF   =         0.00000000
  -V(xc)+E(xc)   XCENC  =        33.81465173
  PAW double counting   =       527.90519926     -529.95783227
  entropy T*S    EENTRO =        -0.00000000
  eigenvalues    EBANDS =      -108.22985355
  atomic energy  EATOM  =       457.35487982
  Solvation  Ediel_sol  =         0.00000000
  ---------------------------------------------------
  free energy    TOTEN  =       -14.19179699 eV

  energy without entropy =      -14.19179699  energy(sigma->0) =      -14.19179699


--------------------------------------------------------------------------------------------------------




--------------------------------------- Iteration      1(   9)  ---------------------------------------


    POTLOK:  cpu time     13.3091: real time     13.3091
    SETDIJ:  cpu time      0.0020: real time      0.0020
     EDDAV:  cpu time      8.7533: real time      8.7533
       DOS:  cpu time      0.0001: real time      0.0001
    CHARGE:  cpu time      1.5937: real time      1.5937
    MIXING:  cpu time      0.8221: real time      0.8221
    --------------------------------------------
      LOOP:  cpu time     24.4803: real time     24.4804

 eigenvalue-minimisations  :    32
 total energy-change (2. order) :-0.1156031E-04  (-0.9607958E-07)
 number of electron       8.0000000 magnetization 
 augmentation part        0.6790329 magnetization 

 Broyden mixing:
  rms(total) = 0.15115E-03    rms(broyden)= 0.15115E-03
  rms(prec ) = 0.22417E-03
  weight for this iteration     100.00

 eigenvalues of (default mixing * dielectric matrix)
  average eigenvalue GAMMA=   1.9962
  4.9289  2.7510  2.4047  1.8840  1.1586  0.9759  0.9759  0.8904

 Free energy of the ion-electron system (eV)
  ---------------------------------------------------
  alpha Z        PSCENC =         0.02803141
  Ewald energy   TEWEN  =       116.41630449
  -Hartree energ DENC   =      -511.51815037
  -exchange      EXHF   =         0.00000000
  -V(xc)+E(xc)   XCENC  =        33.81463286
  PAW double counting   =       527.91308477     -529.96572255
  entropy T*S    EENTRO =        -0.00000000
  eigenvalues    EBANDS =      -108.23486898
  atomic energy  EATOM  =       457.35487982
  Solvation  Ediel_sol  =         0.00000000
  ---------------------------------------------------
  free energy    TOTEN  =       -14.19180855 eV

  energy without entropy =      -14.19180855  energy(sigma->0) =      -14.19180855


--------------------------------------------------------------------------------------------------------




--------------------------------------- Iteration      1(  10)  ---------------------------------------


    POTLOK:  cpu time     13.1994: real time     13.1995
    SETDIJ:  cpu time      0.0020: real time      0.0020
     EDDAV:  cpu time      6.9687: real time      6.9687
       DOS:  cpu time      0.0001: real time      0.0001
    CHARGE:  cpu time      1.5956: real time      1.5956
    MIXING:  cpu time      0.8600: real time      0.8600
    --------------------------------------------
      LOOP:  cpu time     22.6258: real time     22.6259

 eigenvalue-minimisations  :    24
 total energy-change (2. order) :-0.1809056E-04  (-0.2966298E-06)
 number of electron       8.0000000 magnetization 
 augmentation part        0.6790663 magnetization 

 Broyden mixing:
  rms(total) = 0.10926E-03    rms(broyden)= 0.10926E-03
  rms(prec ) = 0.13538E-03
  weight for this iteration     100.00

 eigenvalues of (default mixing * dielectric matrix)
  average eigenvalue GAMMA=   1.9826
  5.4386  3.0412  2.4551  1.8736  1.0929  1.0929  0.9547  0.9547  0.9398

 Free energy of the ion-electron system (eV)
  ---------------------------------------------------
  alpha Z        PSCENC =         0.02803141
  Ewald energy   TEWEN  =       116.41630449
  -Hartree energ DENC   =      -511.50338002
  -exchange      EXHF   =         0.00000000
  -V(xc)+E(xc)   XCENC  =        33.81422487
  PAW double counting   =       527.88035821     -529.93289986
  entropy T*S    EENTRO =        -0.00000000
  eigenvalues    EBANDS =      -108.24934556
  atomic energy  EATOM  =       457.35487982
  Solvation  Ediel_sol  =         0.00000000
  ---------------------------------------------------
  free energy    TOTEN  =       -14.19182664 eV

  energy without entropy =      -14.19182664  energy(sigma->0) =      -14.19182664


--------------------------------------------------------------------------------------------------------




--------------------------------------- Iteration      1(  11)  ---------------------------------------


    POTLOK:  cpu time     13.1722: real time     13.1721
    SETDIJ:  cpu time      0.0020: real time      0.0020
     EDDAV:  cpu time      6.9616: real time      6.9616
       DOS:  cpu time      0.0001: real time      0.0001
    CHARGE:  cpu time      1.5929: real time      1.5929
    MIXING:  cpu time      0.9151: real time      0.9151
    --------------------------------------------
      LOOP:  cpu time     22.6438: real time     22.6438

 eigenvalue-minimisations  :    24
 total energy-change (2. order) :-0.5838250E-05  (-0.3555330E-07)
 number of electron       8.0000000 magnetization 
 augmentation part        0.6790466 magnetization 

 Broyden mixing:
  rms(total) = 0.48460E-04    rms(broyden)= 0.48460E-04
  rms(prec ) = 0.68560E-04
  weight for this iteration     100.00

 eigenvalues of (default mixing * dielectric matrix)
  average eigenvalue GAMMA=   2.2426
  6.7180  3.8397  2.6915  2.3713  1.8877  1.1165  0.9974  0.9974  0.9029  0.9029

 Free energy of the ion-electron system (eV)
  ---------------------------------------------------
  alpha Z        PSCENC =         0.02803141
  Ewald energy   TEWEN  =       116.41630449
  -Hartree energ DENC   =      -511.50568098
  -exchange      EXHF   =         0.00000000
  -V(xc)+E(xc)   XCENC  =        33.81440418
  PAW double counting   =       527.88425709     -529.93684196
  entropy T*S    EENTRO =        -0.00000000
  eigenvalues    EBANDS =      -108.24718652
  atomic energy  EATOM  =       457.35487982
  Solvation  Ediel_sol  =         0.00000000
  ---------------------------------------------------
  free energy    TOTEN  =       -14.19183248 eV

  energy without entropy =      -14.19183248  energy(sigma->0) =      -14.19183248


--------------------------------------------------------------------------------------------------------




--------------------------------------- Iteration      1(  12)  ---------------------------------------


    POTLOK:  cpu time     13.2202: real time     13.2202
    SETDIJ:  cpu time      0.0020: real time      0.0020
     EDDAV:  cpu time      5.2080: real time      5.2080
       DOS:  cpu time      0.0001: real time      0.0001
    CHARGE:  cpu time      1.5936: real time      1.5936
    MIXING:  cpu time      0.9545: real time      0.9545
    --------------------------------------------
      LOOP:  cpu time     20.9783: real time     20.9783

 eigenvalue-minimisations  :    16
 total energy-change (2. order) :-0.7931862E-05  (-0.4336046E-07)
 number of electron       8.0000000 magnetization 
 augmentation part        0.6790464 magnetization 

 Broyden mixing:
  rms(total) = 0.21605E-04    rms(broyden)= 0.21605E-04
  rms(prec ) = 0.30184E-04
  weight for this iteration     100.00

 eigenvalues of (default mixing * dielectric matrix)
  average eigenvalue GAMMA=   2.2633
  7.1881  4.1372  2.7419  2.3928  1.7853  1.7279  1.0972  0.9777  0.9777  0.9628
  0.9080

 Free energy of the ion-electron system (eV)
  ---------------------------------------------------
  alpha Z        PSCENC =         0.02803141
  Ewald energy   TEWEN  =       116.41630449
  -Hartree energ DENC   =      -511.50501869
  -exchange      EXHF   =         0.00000000
  -V(xc)+E(xc)   XCENC  =        33.81443484
  PAW double counting   =       527.89337394     -529.94596695
  entropy T*S    EENTRO =        -0.00000000
  eigenvalues    EBANDS =      -108.24787927
  atomic energy  EATOM  =       457.35487982
  Solvation  Ediel_sol  =         0.00000000
  ---------------------------------------------------
  free energy    TOTEN  =       -14.19184041 eV

  energy without entropy =      -14.19184041  energy(sigma->0) =      -14.19184041


--------------------------------------------------------------------------------------------------------




--------------------------------------- Iteration      1(  13)  ---------------------------------------


    POTLOK:  cpu time     13.2884: real time     13.2884
    SETDIJ:  cpu time      0.0020: real time      0.0020
     EDDAV:  cpu time      6.9733: real time      6.9734
       DOS:  cpu time      0.0001: real time      0.0001
    CHARGE:  cpu time      1.5941: real time      1.5941
    MIXING:  cpu time      1.0062: real time      1.0062
    --------------------------------------------
      LOOP:  cpu time     22.8641: real time     22.8642

 eigenvalue-minimisations  :    24
 total energy-change (2. order) :-0.3022275E-05  (-0.7350787E-08)
 number of electron       8.0000000 magnetization 
 augmentation part        0.6790532 magnetization 

 Broyden mixing:
  rms(total) = 0.20304E-04    rms(broyden)= 0.20304E-04
  rms(prec ) = 0.24741E-04
  weight for this iteration     100.00

 eigenvalues of (default mixing * dielectric matrix)
  average eigenvalue GAMMA=   2.3504
  7.9542  4.5026  3.0788  2.4818  2.3527  1.8928  1.1144  1.1144  0.9616  0.9616
  0.8951  0.8951

 Free energy of the ion-electron system (eV)
  ---------------------------------------------------
  alpha Z        PSCENC =         0.02803141
  Ewald energy   TEWEN  =       116.41630449
  -Hartree energ DENC   =      -511.50409756
  -exchange      EXHF   =         0.00000000
  -V(xc)+E(xc)   XCENC  =        33.81439516
  PAW double counting   =       527.89142196     -529.94400517
  entropy T*S    EENTRO =        -0.00000000
  eigenvalues    EBANDS =      -108.24877354
  atomic energy  EATOM  =       457.35487982
  Solvation  Ediel_sol  =         0.00000000
  ---------------------------------------------------
  free energy    TOTEN  =       -14.19184343 eV

  energy without entropy =      -14.19184343  energy(sigma->0) =      -14.19184343


--------------------------------------------------------------------------------------------------------




--------------------------------------- Iteration      1(  14)  ---------------------------------------


    POTLOK:  cpu time     13.4786: real time     13.4785
    SETDIJ:  cpu time      0.0020: real time      0.0020
     EDDAV:  cpu time      5.2100: real time      5.2100
       DOS:  cpu time      0.0001: real time      0.0001
    CHARGE:  cpu time      1.5979: real time      1.5982
    MIXING:  cpu time      1.0644: real time      1.0644
    --------------------------------------------
      LOOP:  cpu time     21.3529: real time     21.3532

 eigenvalue-minimisations  :    16
 total energy-change (2. order) :-0.1946574E-05  (-0.4459139E-08)
 number of electron       8.0000000 magnetization 
 augmentation part        0.6790472 magnetization 

 Broyden mixing:
  rms(total) = 0.14691E-04    rms(broyden)= 0.14691E-04
  rms(prec ) = 0.16857E-04
  weight for this iteration     100.00

 eigenvalues of (default mixing * dielectric matrix)
  average eigenvalue GAMMA=   2.3434
  8.0788  5.0029  3.2355  2.6592  2.3275  1.8780  1.3910  1.0907  1.0907  0.9431
  0.9431  0.9260  0.8973

 Free energy of the ion-electron system (eV)
  ---------------------------------------------------
  alpha Z        PSCENC =         0.02803141
  Ewald energy   TEWEN  =       116.41630449
  -Hartree energ DENC   =      -511.50472413
  -exchange      EXHF   =         0.00000000
  -V(xc)+E(xc)   XCENC  =        33.81443856
  PAW double counting   =       527.89213668     -529.94473480
  entropy T*S    EENTRO =        -0.00000000
  eigenvalues    EBANDS =      -108.24817742
  atomic energy  EATOM  =       457.35487982
  Solvation  Ediel_sol  =         0.00000000
  ---------------------------------------------------
  free energy    TOTEN  =       -14.19184538 eV

  energy without entropy =      -14.19184538  energy(sigma->0) =      -14.19184538


--------------------------------------------------------------------------------------------------------




--------------------------------------- Iteration      1(  15)  ---------------------------------------


    POTLOK:  cpu time     13.6575: real time     13.6576
    SETDIJ:  cpu time      0.0020: real time      0.0020
     EDDAV:  cpu time      6.9953: real time      6.9954
       DOS:  cpu time      0.0001: real time      0.0001
    --------------------------------------------
      LOOP:  cpu time     20.6549: real time     20.6550

 eigenvalue-minimisations  :    24
 total energy-change (2. order) :-0.7240996E-06  (-0.1090340E-08)
 number of electron       8.0000000 magnetization 
 augmentation part        0.6790472 magnetization 

 Free energy of the ion-electron system (eV)
  ---------------------------------------------------
  alpha Z        PSCENC =         0.02803141
  Ewald energy   TEWEN  =       116.41630449
  -Hartree energ DENC   =      -511.50425612
  -exchange      EXHF   =         0.00000000
  -V(xc)+E(xc)   XCENC  =        33.81441560
  PAW double counting   =       527.89129712     -529.94388389
  entropy T*S    EENTRO =        -0.00000000
  eigenvalues    EBANDS =      -108.24863453
  atomic energy  EATOM  =       457.35487982
  Solvation  Ediel_sol  =         0.00000000
  ---------------------------------------------------
  free energy    TOTEN  =       -14.19184610 eV

  energy without entropy =      -14.19184610  energy(sigma->0) =      -14.19184610


--------------------------------------------------------------------------------------------------------




 average (electrostatic) potential at core
  the test charge radii are     0.5201  0.7215
  (the norm of the test charge is              1.0000)
       1 -44.3691       2 -44.3623       3 -80.5321
 
 
 
 E-fermi :  -6.1754     XC(G=0):  -0.0942     alpha+bet : -0.0163

 Fermi energy:        -6.1754340711

 k-point     1 :       0.0000    0.0000    0.0000
  band No.  band energies     occupation 
      1     -24.9519      2.00000
      2     -12.9113      2.00000
      3      -9.1352      2.00000
      4      -7.1259      2.00000
      5      -1.0745      0.00000
      6       0.0183      0.00000
      7       0.1998      0.00000
      8       0.3102      0.00000


--------------------------------------------------------------------------------------------------------


 soft charge-density along one line, spin component           1
         0         1         2         3         4         5         6         7         8         9
 total charge-density along one line
 
 pseudopotential strength for first ion, spin component:           1
 -2.381  -4.111  -0.000   0.003   0.000
 -4.111  -7.012  -0.000   0.008   0.000
 -0.000  -0.000  -0.326  -0.000  -0.000
  0.003   0.008  -0.000  -0.318  -0.000
  0.000   0.000  -0.000  -0.000  -0.326
 total augmentation occupancy for first ion, spin component:           1
  3.590  -0.755   0.000  -0.649   0.005
 -0.755   0.204   0.000   0.135  -0.006
  0.000   0.000   0.035   0.000   0.000
 -0.649   0.135   0.000   0.118  -0.003
  0.005  -0.006   0.000  -0.003   0.023


------------------------ aborting loop because EDIFF is reached ----------------------------------------


    CHARGE:  cpu time      1.5987: real time      1.5987
    FORLOC:  cpu time      1.1766: real time      1.1766
    FORNL :  cpu time      0.5202: real time      0.5202
    STRESS:  cpu time      5.3839: real time      5.3839
    FORCOR:  cpu time     15.3962: real time     15.3962
    FORHAR:  cpu time      4.2119: real time      4.2119
    MIXING:  cpu time      1.1160: real time      1.1159
    OFIELD:  cpu time      0.0000: real time      0.0000

  FORCE on cell =-STRESS in cart. coord.  units (eV):
  Direction    XX          YY          ZZ          XY          YZ          ZX
  --------------------------------------------------------------------------------------
  Alpha Z     0.02803     0.02803     0.02803
  Ewald      59.69800   -21.81814    78.53640     0.00341     0.00032    26.95786
  Hartree   174.39697   159.30168   177.80584     0.00023    -0.00014     4.88993
  E(xc)     -35.84574   -36.20369   -35.77168    -0.00000     0.00000     0.10650
  Local    -318.56518  -246.17888  -335.77853    -0.00107    -0.00100   -24.65246
  n-local   -30.01498   -30.46408   -29.76697     0.00055    -0.00044     0.36793
  augment     6.37243     8.08967     6.04937    -0.00001     0.00003    -0.46388
  Kinetic   142.78409   167.24247   137.40468    -0.00159     0.00024    -7.74684
  Fock        0.00000     0.00000     0.00000     0.00000     0.00000     0.00000
  -------------------------------------------------------------------------------------
  Total      -1.14638    -0.00293    -1.49287     0.00000     0.00000    -0.54095
  in kB      -0.22959    -0.00059    -0.29898     0.00000     0.00000    -0.10834
  external pressure =       -0.18 kB  Pullay stress =        0.00 kB


 VOLUME and BASIS-vectors are now :
 -----------------------------------------------------------------------------
  energy-cutoff  :     1300.00
  volume of cell :     8000.00
      direct lattice vectors                 reciprocal lattice vectors
    20.000000000  0.000000000  0.000000000     0.050000000  0.000000000  0.000000000
     0.000000000 20.000000000  0.000000000     0.000000000  0.050000000  0.000000000
     0.000000000  0.000000000 20.000000000     0.000000000  0.000000000  0.050000000

  length of vectors
    20.000000000 20.000000000 20.000000000     0.050000000  0.050000000  0.050000000


 FORCES acting on ions
    electron-ion (+dipol)            ewald-force                    non-local-force                 convergence-correction
 -----------------------------------------------------------------------------------------------
   -.107E+01 -.814E-02 -.847E+02   0.101E+01 -.758E-03 0.909E+02   -.111E+00 0.000E+00 -.752E+01   -.499E-05 0.651E-09 0.216E-04
   0.796E+02 -.434E-02 0.288E+02   -.854E+02 -.355E-02 -.308E+02   0.705E+01 0.000E+00 0.257E+01   -.208E-04 -.109E-10 -.434E-05
   -.468E+02 -.116E+00 0.334E+02   0.844E+02 0.431E-02 -.601E+02   -.386E+02 0.000E+00 0.275E+02   0.474E-05 0.415E-07 -.466E-04
 -----------------------------------------------------------------------------------------------
   0.317E+02 -.129E+00 -.225E+02   0.000E+00 -.607E-17 -.711E-14   -.317E+02 0.000E+00 0.225E+02   -.210E-04 0.422E-07 -.294E-04
 
 
 POSITION                                       TOTAL-FORCE (eV/Angst)
 -----------------------------------------------------------------------------------
      5.10791      0.00007      1.44532        -0.175114     -0.000000     -1.306453
      4.18045      0.00004      0.14168         1.202868     -0.000000      0.602700
      5.13390      0.00008      0.44561        -1.027754      0.000000      0.703753
 -----------------------------------------------------------------------------------
    total drift:                               -0.000052     -0.128765      0.000217


--------------------------------------------------------------------------------------------------------



  FREE ENERGIE OF THE ION-ELECTRON SYSTEM (eV)
  ---------------------------------------------------
  free  energy   TOTEN  =       -14.19184610 eV

  energy  without entropy=      -14.19184610  energy(sigma->0) =      -14.19184610
 


--------------------------------------------------------------------------------------------------------


    POTLOK:  cpu time     13.7587: real time     13.7591


--------------------------------------------------------------------------------------------------------




--------------------------------------------------------------------------------------------------------


    WAVPRE:  cpu time     38.0577: real time     38.0589
    FEWALD:  cpu time      0.0001: real time      0.0001
    ORTHCH:  cpu time      0.2166: real time      0.2166
     LOOP+:  cpu time    425.7014: real time    425.7282


--------------------------------------- Ionic step        2  -------------------------------------------




--------------------------------------- Iteration      2(   1)  ---------------------------------------


    POTLOK:  cpu time     13.6294: real time     13.6295
    SETDIJ:  cpu time      0.0020: real time      0.0020
     EDDAV:  cpu time      5.2183: real time      5.2183
       DOS:  cpu time      0.0001: real time      0.0001
    CHARGE:  cpu time      1.5991: real time      1.5994
    MIXING:  cpu time      0.5812: real time      0.5812
    --------------------------------------------
      LOOP:  cpu time     21.0301: real time     21.0305

 eigenvalue-minimisations  :    16
 total energy-change (2. order) : 0.1891066E+00  (-0.2974768E+01)
 number of electron       8.0000000 magnetization 
 augmentation part        0.7466147 magnetization 

 Broyden mixing:
  rms(total) = 0.20631E+00    rms(broyden)= 0.20631E+00
  rms(prec ) = 0.21799E+00
  weight for this iteration     100.00

 Free energy of the ion-electron system (eV)
  ---------------------------------------------------
  alpha Z        PSCENC =         0.02803141
  Ewald energy   TEWEN  =       136.00863020
  -Hartree energ DENC   =      -520.52515879
  -exchange      EXHF   =         0.00000000
  -V(xc)+E(xc)   XCENC  =        34.23627026
  PAW double counting   =       527.89148044     -529.94406801
  entropy T*S    EENTRO =        -0.00000000
  eigenvalues    EBANDS =      -119.05280408
  atomic energy  EATOM  =       457.35487982
  Solvation  Ediel_sol  =         0.00000000
  ---------------------------------------------------
  free energy    TOTEN  =       -14.00273877 eV

  energy without entropy =      -14.00273877  energy(sigma->0) =      -14.00273877


--------------------------------------------------------------------------------------------------------




--------------------------------------- Iteration      2(   2)  ---------------------------------------


    POTLOK:  cpu time     12.9554: real time     12.9554
    SETDIJ:  cpu time      0.0020: real time      0.0020
     EDDAV:  cpu time      5.2277: real time      5.2278
       DOS:  cpu time      0.0001: real time      0.0001
    CHARGE:  cpu time      1.6003: real time      1.6004
    MIXING:  cpu time      0.5995: real time      0.5995
    --------------------------------------------
      LOOP:  cpu time     20.3850: real time     20.3851

 eigenvalue-minimisations  :    16
 total energy-change (2. order) : 0.4349807E-01  (-0.6837728E-01)
 number of electron       8.0000000 magnetization 
 augmentation part        0.7366304 magnetization 

 Broyden mixing:
  rms(total) = 0.85464E-01    rms(broyden)= 0.85464E-01
  rms(prec ) = 0.89296E-01
  weight for this iteration     100.00

 eigenvalues of (default mixing * dielectric matrix)
  average eigenvalue GAMMA=   1.2830
  1.2830

 Free energy of the ion-electron system (eV)
  ---------------------------------------------------
  alpha Z        PSCENC =         0.02803141
  Ewald energy   TEWEN  =       136.00863020
  -Hartree energ DENC   =      -525.13054438
  -exchange      EXHF   =         0.00000000
  -V(xc)+E(xc)   XCENC  =        34.49656158
  PAW double counting   =       557.41991104     -559.55889988
  entropy T*S    EENTRO =        -0.00000000
  eigenvalues    EBANDS =      -114.57781048
  atomic energy  EATOM  =       457.35487982
  Solvation  Ediel_sol  =         0.00000000
  ---------------------------------------------------
  free energy    TOTEN  =       -13.95924070 eV

  energy without entropy =      -13.95924070  energy(sigma->0) =      -13.95924070


--------------------------------------------------------------------------------------------------------




--------------------------------------- Iteration      2(   3)  ---------------------------------------


    POTLOK:  cpu time     13.0937: real time     13.0937
    SETDIJ:  cpu time      0.0020: real time      0.0020
     EDDAV:  cpu time      5.2250: real time      5.2250
       DOS:  cpu time      0.0001: real time      0.0001
    CHARGE:  cpu time      1.6006: real time      1.6007
    MIXING:  cpu time      0.6294: real time      0.6294
    --------------------------------------------
      LOOP:  cpu time     20.5508: real time     20.5509

 eigenvalue-minimisations  :    16
 total energy-change (2. order) : 0.1046831E-01  (-0.6279603E-02)
 number of electron       8.0000001 magnetization 
 augmentation part        0.7270900 magnetization 

 Broyden mixing:
  rms(total) = 0.37532E-01    rms(broyden)= 0.37532E-01
  rms(prec ) = 0.39062E-01
  weight for this iteration     100.00

 eigenvalues of (default mixing * dielectric matrix)
  average eigenvalue GAMMA=   1.3488
  1.3488  1.3488

 Free energy of the ion-electron system (eV)
  ---------------------------------------------------
  alpha Z        PSCENC =         0.02803141
  Ewald energy   TEWEN  =       136.00863020
  -Hartree energ DENC   =      -526.84698703
  -exchange      EXHF   =         0.00000000
  -V(xc)+E(xc)   XCENC  =        34.59488403
  PAW double counting   =       577.83447993     -580.02585693
  entropy T*S    EENTRO =        -0.00000000
  eigenvalues    EBANDS =      -112.89683383
  atomic energy  EATOM  =       457.35487982
  Solvation  Ediel_sol  =         0.00000000
  ---------------------------------------------------
  free energy    TOTEN  =       -13.94877239 eV

  energy without entropy =      -13.94877239  energy(sigma->0) =      -13.94877239


--------------------------------------------------------------------------------------------------------




--------------------------------------- Iteration      2(   4)  ---------------------------------------


    POTLOK:  cpu time     13.2943: real time     13.2944
    SETDIJ:  cpu time      0.0020: real time      0.0020
     EDDAV:  cpu time      6.9971: real time      6.9972
       DOS:  cpu time      0.0001: real time      0.0001
    CHARGE:  cpu time      1.5998: real time      1.5998
    MIXING:  cpu time      0.6530: real time      0.6530
    --------------------------------------------
      LOOP:  cpu time     22.5462: real time     22.5464

 eigenvalue-minimisations  :    24
 total energy-change (2. order) : 0.1437286E-02  (-0.1271067E-02)
 number of electron       8.0000001 magnetization 
 augmentation part        0.7318477 magnetization 

 Broyden mixing:
  rms(total) = 0.19745E-01    rms(broyden)= 0.19745E-01
  rms(prec ) = 0.20646E-01
  weight for this iteration     100.00

 eigenvalues of (default mixing * dielectric matrix)
  average eigenvalue GAMMA=   1.4416
  2.3377  0.9935  0.9935

 Free energy of the ion-electron system (eV)
  ---------------------------------------------------
  alpha Z        PSCENC =         0.02803141
  Ewald energy   TEWEN  =       136.00863020
  -Hartree energ DENC   =      -526.27489989
  -exchange      EXHF   =         0.00000000
  -V(xc)+E(xc)   XCENC  =        34.56411092
  PAW double counting   =       585.19392078     -587.38487440
  entropy T*S    EENTRO =        -0.00000000
  eigenvalues    EBANDS =      -113.43713395
  atomic energy  EATOM  =       457.35487982
  Solvation  Ediel_sol  =         0.00000000
  ---------------------------------------------------
  free energy    TOTEN  =       -13.94733511 eV

  energy without entropy =      -13.94733511  energy(sigma->0) =      -13.94733511


--------------------------------------------------------------------------------------------------------




--------------------------------------- Iteration      2(   5)  ---------------------------------------


    POTLOK:  cpu time     13.3933: real time     13.3934
    SETDIJ:  cpu time      0.0020: real time      0.0020
     EDDAV:  cpu time      7.0022: real time      7.0023
       DOS:  cpu time      0.0001: real time      0.0001
    CHARGE:  cpu time      1.6018: real time      1.6018
    MIXING:  cpu time      0.6780: real time      0.6780
    --------------------------------------------
      LOOP:  cpu time     22.6773: real time     22.6774

 eigenvalue-minimisations  :    24
 total energy-change (2. order) : 0.4994685E-03  (-0.3244904E-03)
 number of electron       8.0000001 magnetization 
 augmentation part        0.7299490 magnetization 

 Broyden mixing:
  rms(total) = 0.28852E-02    rms(broyden)= 0.28852E-02
  rms(prec ) = 0.31772E-02
  weight for this iteration     100.00

 eigenvalues of (default mixing * dielectric matrix)
  average eigenvalue GAMMA=   1.4979
  2.3048  1.6356  1.1387  0.9125

 Free energy of the ion-electron system (eV)
  ---------------------------------------------------
  alpha Z        PSCENC =         0.02803141
  Ewald energy   TEWEN  =       136.00863020
  -Hartree energ DENC   =      -526.70204141
  -exchange      EXHF   =         0.00000000
  -V(xc)+E(xc)   XCENC  =        34.58914419
  PAW double counting   =       594.18036379     -596.39130221
  entropy T*S    EENTRO =        -0.00000000
  eigenvalues    EBANDS =      -113.01454143
  atomic energy  EATOM  =       457.35487982
  Solvation  Ediel_sol  =         0.00000000
  ---------------------------------------------------
  free energy    TOTEN  =       -13.94683564 eV

  energy without entropy =      -13.94683564  energy(sigma->0) =      -13.94683564


--------------------------------------------------------------------------------------------------------




--------------------------------------- Iteration      2(   6)  ---------------------------------------


    POTLOK:  cpu time     13.4769: real time     13.4769
    SETDIJ:  cpu time      0.0020: real time      0.0020
     EDDAV:  cpu time      6.9984: real time      6.9985
       DOS:  cpu time      0.0001: real time      0.0001
    CHARGE:  cpu time      1.5993: real time      1.5993
    MIXING:  cpu time      0.7205: real time      0.7205
    --------------------------------------------
      LOOP:  cpu time     22.7971: real time     22.7972

 eigenvalue-minimisations  :    24
 total energy-change (2. order) :-0.1722449E-03  (-0.1767407E-04)
 number of electron       8.0000001 magnetization 
 augmentation part        0.7294987 magnetization 

 Broyden mixing:
  rms(total) = 0.20145E-02    rms(broyden)= 0.20145E-02
  rms(prec ) = 0.22786E-02
  weight for this iteration     100.00

 eigenvalues of (default mixing * dielectric matrix)
  average eigenvalue GAMMA=   1.4690
  2.4770  1.8181  1.1376  0.9561  0.9561

 Free energy of the ion-electron system (eV)
  ---------------------------------------------------
  alpha Z        PSCENC =         0.02803141
  Ewald energy   TEWEN  =       136.00863020
  -Hartree energ DENC   =      -526.73654593
  -exchange      EXHF   =         0.00000000
  -V(xc)+E(xc)   XCENC  =        34.59065257
  PAW double counting   =       594.87160591     -597.08466506
  entropy T*S    EENTRO =        -0.00000000
  eigenvalues    EBANDS =      -112.97959680
  atomic energy  EATOM  =       457.35487982
  Solvation  Ediel_sol  =         0.00000000
  ---------------------------------------------------
  free energy    TOTEN  =       -13.94700788 eV

  energy without entropy =      -13.94700788  energy(sigma->0) =      -13.94700788


--------------------------------------------------------------------------------------------------------




--------------------------------------- Iteration      2(   7)  ---------------------------------------


    POTLOK:  cpu time     13.5285: real time     13.5286
    SETDIJ:  cpu time      0.0020: real time      0.0020
     EDDAV:  cpu time      7.0080: real time      7.0080
       DOS:  cpu time      0.0001: real time      0.0001
    CHARGE:  cpu time      1.6015: real time      1.6015
    MIXING:  cpu time      0.7467: real time      0.7467
    --------------------------------------------
      LOOP:  cpu time     22.8867: real time     22.8868

 eigenvalue-minimisations  :    24
 total energy-change (2. order) :-0.7360404E-04  (-0.4938826E-05)
 number of electron       8.0000001 magnetization 
 augmentation part        0.7298239 magnetization 

 Broyden mixing:
  rms(total) = 0.44805E-03    rms(broyden)= 0.44804E-03
  rms(prec ) = 0.74254E-03
  weight for this iteration     100.00

 eigenvalues of (default mixing * dielectric matrix)
  average eigenvalue GAMMA=   1.5296
  2.5014  2.1760  1.4873  0.9233  0.9233  1.1662

 Free energy of the ion-electron system (eV)
  ---------------------------------------------------
  alpha Z        PSCENC =         0.02803141
  Ewald energy   TEWEN  =       136.00863020
  -Hartree energ DENC   =      -526.69864130
  -exchange      EXHF   =         0.00000000
  -V(xc)+E(xc)   XCENC  =        34.58832798
  PAW double counting   =       595.13855197     -597.35099915
  entropy T*S    EENTRO =        -0.00000000
  eigenvalues    EBANDS =      -113.01586242
  atomic energy  EATOM  =       457.35487982
  Solvation  Ediel_sol  =         0.00000000
  ---------------------------------------------------
  free energy    TOTEN  =       -13.94708149 eV

  energy without entropy =      -13.94708149  energy(sigma->0) =      -13.94708149


--------------------------------------------------------------------------------------------------------




--------------------------------------- Iteration      2(   8)  ---------------------------------------


    POTLOK:  cpu time     13.6028: real time     13.6029
    SETDIJ:  cpu time      0.0021: real time      0.0021
     EDDAV:  cpu time      7.0123: real time      7.0124
       DOS:  cpu time      0.0001: real time      0.0001
    CHARGE:  cpu time      1.6025: real time      1.6025
    MIXING:  cpu time      0.7828: real time      0.7828
    --------------------------------------------
      LOOP:  cpu time     23.0025: real time     23.0028

 eigenvalue-minimisations  :    24
 total energy-change (2. order) :-0.1296835E-03  (-0.1896710E-05)
 number of electron       8.0000001 magnetization 
 augmentation part        0.7299514 magnetization 

 Broyden mixing:
  rms(total) = 0.58519E-03    rms(broyden)= 0.58519E-03
  rms(prec ) = 0.72631E-03
  weight for this iteration     100.00

 eigenvalues of (default mixing * dielectric matrix)
  average eigenvalue GAMMA=   1.6089
  3.0321  2.3958  1.8403  0.9999  0.9999  0.9971  0.9971

 Free energy of the ion-electron system (eV)
  ---------------------------------------------------
  alpha Z        PSCENC =         0.02803141
  Ewald energy   TEWEN  =       136.00863020
  -Hartree energ DENC   =      -526.68441144
  -exchange      EXHF   =         0.00000000
  -V(xc)+E(xc)   XCENC  =        34.58708070
  PAW double counting   =       595.10145103     -597.31344297
  entropy T*S    EENTRO =        -0.00000000
  eigenvalues    EBANDS =      -113.02942993
  atomic energy  EATOM  =       457.35487982
  Solvation  Ediel_sol  =         0.00000000
  ---------------------------------------------------
  free energy    TOTEN  =       -13.94721117 eV

  energy without entropy =      -13.94721117  energy(sigma->0) =      -13.94721117


--------------------------------------------------------------------------------------------------------




--------------------------------------- Iteration      2(   9)  ---------------------------------------


    POTLOK:  cpu time     13.6804: real time     13.6805
    SETDIJ:  cpu time      0.0020: real time      0.0020
     EDDAV:  cpu time      7.0140: real time      7.0141
       DOS:  cpu time      0.0001: real time      0.0001
    CHARGE:  cpu time      1.6018: real time      1.6019
    MIXING:  cpu time      0.8254: real time      0.8254
    --------------------------------------------
      LOOP:  cpu time     23.1237: real time     23.1240

 eigenvalue-minimisations  :    24
 total energy-change (2. order) :-0.9669226E-04  (-0.1305479E-05)
 number of electron       8.0000001 magnetization 
 augmentation part        0.7298543 magnetization 

 Broyden mixing:
  rms(total) = 0.16845E-03    rms(broyden)= 0.16845E-03
  rms(prec ) = 0.28789E-03
  weight for this iteration     100.00

 eigenvalues of (default mixing * dielectric matrix)
  average eigenvalue GAMMA=   1.8344
  4.3338  2.5277  2.0559  1.8516  0.9828  0.9828  1.0248  0.9159

 Free energy of the ion-electron system (eV)
  ---------------------------------------------------
  alpha Z        PSCENC =         0.02803141
  Ewald energy   TEWEN  =       136.00863020
  -Hartree energ DENC   =      -526.70666092
  -exchange      EXHF   =         0.00000000
  -V(xc)+E(xc)   XCENC  =        34.58796441
  PAW double counting   =       595.12542212     -597.33762849
  entropy T*S    EENTRO =        -0.00000000
  eigenvalues    EBANDS =      -113.00794641
  atomic energy  EATOM  =       457.35487982
  Solvation  Ediel_sol  =         0.00000000
  ---------------------------------------------------
  free energy    TOTEN  =       -13.94730786 eV

  energy without entropy =      -13.94730786  energy(sigma->0) =      -13.94730786


--------------------------------------------------------------------------------------------------------




--------------------------------------- Iteration      2(  10)  ---------------------------------------


    POTLOK:  cpu time     13.7684: real time     13.7684
    SETDIJ:  cpu time      0.0020: real time      0.0021
     EDDAV:  cpu time      7.0074: real time      7.0075
       DOS:  cpu time      0.0001: real time      0.0001
    CHARGE:  cpu time      1.6003: real time      1.6003
    MIXING:  cpu time      0.8600: real time      0.8600
    --------------------------------------------
      LOOP:  cpu time     23.2381: real time     23.2383

 eigenvalue-minimisations  :    24
 total energy-change (2. order) :-0.8219387E-04  (-0.8680898E-06)
 number of electron       8.0000001 magnetization 
 augmentation part        0.7298507 magnetization 

 Broyden mixing:
  rms(total) = 0.12848E-03    rms(broyden)= 0.12848E-03
  rms(prec ) = 0.16982E-03
  weight for this iteration     100.00

 eigenvalues of (default mixing * dielectric matrix)
  average eigenvalue GAMMA=   1.9873
  5.8275  2.7274  2.3734  1.8806  0.9922  0.9922  1.1301  1.0153  0.9471

 Free energy of the ion-electron system (eV)
  ---------------------------------------------------
  alpha Z        PSCENC =         0.02803141
  Ewald energy   TEWEN  =       136.00863020
  -Hartree energ DENC   =      -526.71496626
  -exchange      EXHF   =         0.00000000
  -V(xc)+E(xc)   XCENC  =        34.58812772
  PAW double counting   =       595.09369578     -597.30588826
  entropy T*S    EENTRO =        -0.00000000
  eigenvalues    EBANDS =      -112.99990047
  atomic energy  EATOM  =       457.35487982
  Solvation  Ediel_sol  =         0.00000000
  ---------------------------------------------------
  free energy    TOTEN  =       -13.94739006 eV

  energy without entropy =      -13.94739006  energy(sigma->0) =      -13.94739006


--------------------------------------------------------------------------------------------------------




--------------------------------------- Iteration      2(  11)  ---------------------------------------


    POTLOK:  cpu time     13.7956: real time     13.7957
    SETDIJ:  cpu time      0.0020: real time      0.0020
     EDDAV:  cpu time      8.8115: real time      8.8116
       DOS:  cpu time      0.0001: real time      0.0001
    CHARGE:  cpu time      1.6007: real time      1.6007
    MIXING:  cpu time      0.9165: real time      0.9165
    --------------------------------------------
      LOOP:  cpu time     25.1265: real time     25.1266

[...]
  -Hartree energ DENC   =      -515.75460542
  -exchange      EXHF   =         0.00000000
  -V(xc)+E(xc)   XCENC  =        34.02838349
  PAW double counting   =       544.70811922     -546.78881284
  entropy T*S    EENTRO =        -0.00000000
  eigenvalues    EBANDS =      -109.68321717
  atomic energy  EATOM  =       457.35487982
  Solvation  Ediel_sol  =         0.00000000
  ---------------------------------------------------
  free energy    TOTEN  =       -14.23397187 eV

  energy without entropy =      -14.23397187  energy(sigma->0) =      -14.23397187


--------------------------------------------------------------------------------------------------------




--------------------------------------- Iteration     15(   2)  ---------------------------------------


    POTLOK:  cpu time     13.8091: real time     13.8093
    SETDIJ:  cpu time      0.0020: real time      0.0020
     EDDAV:  cpu time      7.0527: real time      7.0529
       DOS:  cpu time      0.0001: real time      0.0001
    --------------------------------------------
      LOOP:  cpu time     20.8638: real time     20.8643

 eigenvalue-minimisations  :    24
 total energy-change (2. order) :-0.4296737E-08  (-0.6401901E-09)
 number of electron       8.0000000 magnetization 
 augmentation part        0.6904571 magnetization 

 Free energy of the ion-electron system (eV)
  ---------------------------------------------------
  alpha Z        PSCENC =         0.02803141
  Ewald energy   TEWEN  =       121.87324962
  -Hartree energ DENC   =      -515.75508384
  -exchange      EXHF   =         0.00000000
  -V(xc)+E(xc)   XCENC  =        34.02841066
  PAW double counting   =       544.70810524     -546.78880335
  entropy T*S    EENTRO =        -0.00000000
  eigenvalues    EBANDS =      -109.68276143
  atomic energy  EATOM  =       457.35487982
  Solvation  Ediel_sol  =         0.00000000
  ---------------------------------------------------
  free energy    TOTEN  =       -14.23397187 eV

  energy without entropy =      -14.23397187  energy(sigma->0) =      -14.23397187


--------------------------------------------------------------------------------------------------------




 average (electrostatic) potential at core
  the test charge radii are     0.5201  0.7215
  (the norm of the test charge is              1.0000)
       1 -44.7120       2 -44.7120       3 -80.5684
 
 
 
 E-fermi :  -6.2611     XC(G=0):  -0.0778     alpha+bet : -0.0163

 Fermi energy:        -6.2611429258

 k-point     1 :       0.0000    0.0000    0.0000
  band No.  band energies     occupation 
      1     -25.2926      2.00000
      2     -13.0946      2.00000
      3      -9.2587      2.00000
      4      -7.1955      2.00000
      5      -0.9852      0.00000
      6       0.0361      0.00000
      7       0.2410      0.00000
      8       0.3281      0.00000


--------------------------------------------------------------------------------------------------------


 soft charge-density along one line, spin component           1
         0         1         2         3         4         5         6         7         8         9
 total charge-density along one line
 
 pseudopotential strength for first ion, spin component:           1
 -2.384  -4.117  -0.000   0.003  -0.000
 -4.117  -7.023  -0.000   0.009  -0.000
 -0.000  -0.000  -0.324  -0.000   0.000
  0.003   0.009  -0.000  -0.314  -0.000
 -0.000  -0.000   0.000  -0.000  -0.323
 total augmentation occupancy for first ion, spin component:           1
  3.738  -0.783   0.000  -0.720   0.018
 -0.783   0.216   0.000   0.146  -0.009
  0.000   0.000   0.041   0.000   0.000
 -0.720   0.146   0.000   0.139  -0.005
  0.018  -0.009   0.000  -0.005   0.027


------------------------ aborting loop because EDIFF is reached ----------------------------------------


    CHARGE:  cpu time      1.6232: real time      1.6232
    FORLOC:  cpu time      1.1947: real time      1.1947
    FORNL :  cpu time      0.5234: real time      0.5234
    STRESS:  cpu time      5.3995: real time      5.3996
    FORCOR:  cpu time     15.4210: real time     15.4212
    FORHAR:  cpu time      4.2240: real time      4.2240
    MIXING:  cpu time      0.6019: real time      0.6019
    OFIELD:  cpu time      0.0000: real time      0.0000

  FORCE on cell =-STRESS in cart. coord.  units (eV):
  Direction    XX          YY          ZZ          XY          YZ          ZX
  --------------------------------------------------------------------------------------
  Alpha Z     0.02803     0.02803     0.02803
  Ewald      62.99382   -21.81647    80.69593     0.00364     0.00029    25.42939
  Hartree   175.95665   160.81481   178.98397     0.00025    -0.00015     4.34051
  E(xc)     -36.06536   -36.42739   -36.00027    -0.00000     0.00000     0.09370
  Local    -322.46131  -248.18740  -338.21860    -0.00125    -0.00092   -22.61475
  n-local   -30.68844   -30.79489   -30.42191     0.00052    -0.00042     0.38380
  augment     6.41423     8.15673     6.09712    -0.00001     0.00002    -0.45598
  Kinetic   143.81740   168.22364   138.83186    -0.00151     0.00018    -7.17658
  Fock        0.00000     0.00000     0.00000     0.00000     0.00000     0.00000
  -------------------------------------------------------------------------------------
  Total      -0.00498    -0.00294    -0.00386     0.00000     0.00000     0.00009
  in kB      -0.00100    -0.00059    -0.00077     0.00000     0.00000     0.00002
  external pressure =       -0.00 kB  Pullay stress =        0.00 kB


 VOLUME and BASIS-vectors are now :
 -----------------------------------------------------------------------------
  energy-cutoff  :     1300.00
  volume of cell :     8000.00
      direct lattice vectors                 reciprocal lattice vectors
    20.000000000  0.000000000  0.000000000     0.050000000  0.000000000  0.000000000
     0.000000000 20.000000000  0.000000000     0.000000000  0.050000000  0.000000000
     0.000000000  0.000000000 20.000000000     0.000000000  0.000000000  0.050000000

  length of vectors
    20.000000000 20.000000000 20.000000000     0.050000000  0.050000000  0.050000000


 FORCES acting on ions
    electron-ion (+dipol)            ewald-force                    non-local-force                 convergence-correction
 -----------------------------------------------------------------------------------------------
   0.136E+00 -.855E-02 -.880E+02   -.185E+00 -.822E-03 0.963E+02   0.488E-01 -.136E-19 -.832E+01   0.421E-05 -.110E-09 0.160E-04
   0.832E+02 -.455E-02 0.287E+02   -.911E+02 -.388E-02 -.314E+02   0.788E+01 0.136E-19 0.269E+01   -.172E-04 -.122E-08 -.130E-04
   -.513E+02 -.117E+00 0.365E+02   0.912E+02 0.471E-02 -.649E+02   -.400E+02 0.000E+00 0.284E+02   0.717E-04 0.198E-07 -.619E-04
 -----------------------------------------------------------------------------------------------
   0.321E+02 -.130E+00 -.228E+02   0.000E+00 -.520E-17 0.142E-13   -.321E+02 0.000E+00 0.228E+02   0.587E-04 0.185E-07 -.590E-04
 
 
 POSITION                                       TOTAL-FORCE (eV/Angst)
 -----------------------------------------------------------------------------------
      5.09117      0.00007      1.41861         0.000600      0.000000     -0.000448
      4.20048      0.00004      0.16634         0.001005      0.000000     -0.000359
      5.13061      0.00008      0.44766        -0.001606     -0.000000      0.000807
 -----------------------------------------------------------------------------------
    total drift:                                0.000097     -0.130282      0.000122


--------------------------------------------------------------------------------------------------------



  FREE ENERGIE OF THE ION-ELECTRON SYSTEM (eV)
  ---------------------------------------------------
  free  energy   TOTEN  =       -14.23397187 eV

  energy  without entropy=      -14.23397187  energy(sigma->0) =      -14.23397187
 
 d Force = 0.6351438E-08[ 0.131E-08, 0.114E-07]  d Energy = 0.1470329E-07-0.835E-08
 d Force =-0.1893967E-02[-0.189E-02,-0.189E-02]  d Ewald  =-0.1893967E-02 0.180E-11


--------------------------------------------------------------------------------------------------------


    POTLOK:  cpu time     13.7586: real time     13.7588


--------------------------------------------------------------------------------------------------------




--------------------------------------------------------------------------------------------------------


    WAVPRE:  cpu time      4.7036: real time      4.7036
    FEWALD:  cpu time      0.0001: real time      0.0001
    ORTHCH:  cpu time      0.2170: real time      0.2170
     LOOP+:  cpu time     90.1582: real time     90.1624


--------------------------------------- Ionic step       16  -------------------------------------------




--------------------------------------- Iteration     16(   1)  ---------------------------------------


    POTLOK:  cpu time     13.7453: real time     13.7454
    SETDIJ:  cpu time      0.0020: real time      0.0020
     EDDAV:  cpu time      7.0052: real time      7.0053
       DOS:  cpu time      0.0001: real time      0.0001
    CHARGE:  cpu time      1.6189: real time      1.6189
    MIXING:  cpu time      0.5700: real time      0.5700
    --------------------------------------------
      LOOP:  cpu time     22.9414: real time     22.9416

 eigenvalue-minimisations  :    24
 total energy-change (2. order) :-0.6199150E-07  (-0.9533685E-06)
 number of electron       8.0000000 magnetization 
 augmentation part        0.6904719 magnetization 

 Broyden mixing:
  rms(total) = 0.73467E-04    rms(broyden)= 0.73464E-04
  rms(prec ) = 0.76601E-04
  weight for this iteration     100.00

 Free energy of the ion-electron system (eV)
  ---------------------------------------------------
  alpha Z        PSCENC =         0.02803141
  Ewald energy   TEWEN  =       121.87555721
  -Hartree energ DENC   =      -515.75586558
  -exchange      EXHF   =         0.00000000
  -V(xc)+E(xc)   XCENC  =        34.02843407
  PAW double counting   =       544.70783250     -546.78853229
  entropy T*S    EENTRO =        -0.00000000
  eigenvalues    EBANDS =      -109.68430907
  atomic energy  EATOM  =       457.35487982
  Solvation  Ediel_sol  =         0.00000000
  ---------------------------------------------------
  free energy    TOTEN  =       -14.23397193 eV

  energy without entropy =      -14.23397193  energy(sigma->0) =      -14.23397193


--------------------------------------------------------------------------------------------------------




--------------------------------------- Iteration     16(   2)  ---------------------------------------


    POTLOK:  cpu time     13.6836: real time     13.6843
    SETDIJ:  cpu time      0.0020: real time      0.0020
     EDDAV:  cpu time      7.0938: real time      7.0943
       DOS:  cpu time      0.0001: real time      0.0001
    --------------------------------------------
      LOOP:  cpu time     20.7794: real time     20.7807

 eigenvalue-minimisations  :    24
 total energy-change (2. order) :-0.8743086E-09  (-0.1045188E-07)
 number of electron       8.0000000 magnetization 
 augmentation part        0.6904719 magnetization 

 Free energy of the ion-electron system (eV)
  ---------------------------------------------------
  alpha Z        PSCENC =         0.02803141
  Ewald energy   TEWEN  =       121.87555721
  -Hartree energ DENC   =      -515.75706433
  -exchange      EXHF   =         0.00000000
  -V(xc)+E(xc)   XCENC  =        34.02850516
  PAW double counting   =       544.71209009     -546.79281446
  entropy T*S    EENTRO =        -0.00000000
  eigenvalues    EBANDS =      -109.68315683
  atomic energy  EATOM  =       457.35487982
  Solvation  Ediel_sol  =         0.00000000
  ---------------------------------------------------
  free energy    TOTEN  =       -14.23397193 eV

  energy without entropy =      -14.23397193  energy(sigma->0) =      -14.23397193


--------------------------------------------------------------------------------------------------------




 average (electrostatic) potential at core
  the test charge radii are     0.5201  0.7215
  (the norm of the test charge is              1.0000)
       1 -44.7121       2 -44.7123       3 -80.5684
 
 
 
 E-fermi :  -6.2610     XC(G=0):  -0.0774     alpha+bet : -0.0163

 Fermi energy:        -6.2610055687

 k-point     1 :       0.0000    0.0000    0.0000
  band No.  band energies     occupation 
      1     -25.2926      2.00000
      2     -13.0952      2.00000
      3      -9.2583      2.00000
      4      -7.1955      2.00000
      5      -0.9852      0.00000
      6       0.0366      0.00000
      7       0.2407      0.00000
      8       0.3283      0.00000


--------------------------------------------------------------------------------------------------------


 soft charge-density along one line, spin component           1
         0         1         2         3         4         5         6         7         8         9
 total charge-density along one line
 
 pseudopotential strength for first ion, spin component:           1
 -2.384  -4.117  -0.000   0.003  -0.000
 -4.117  -7.023  -0.000   0.009  -0.000
 -0.000  -0.000  -0.324  -0.000   0.000
  0.003   0.009  -0.000  -0.314  -0.000
 -0.000  -0.000   0.000  -0.000  -0.323
 total augmentation occupancy for first ion, spin component:           1
  3.738  -0.783   0.000  -0.720   0.018
 -0.783   0.216   0.000   0.146  -0.009
  0.000   0.000   0.041   0.000   0.000
 -0.720   0.146   0.000   0.139  -0.005
  0.018  -0.009   0.000  -0.005   0.027


------------------------ aborting loop because EDIFF is reached ----------------------------------------


    CHARGE:  cpu time      1.6326: real time      1.6327
    FORLOC:  cpu time      1.1860: real time      1.1861
    FORNL :  cpu time      0.5280: real time      0.5281
    STRESS:  cpu time      5.4959: real time      5.4966
    FORCOR:  cpu time     15.5192: real time     15.5195
    FORHAR:  cpu time      4.2461: real time      4.2467
    MIXING:  cpu time      0.6103: real time      0.6105
    OFIELD:  cpu time      0.0000: real time      0.0000

  FORCE on cell =-STRESS in cart. coord.  units (eV):
  Direction    XX          YY          ZZ          XY          YZ          ZX
  --------------------------------------------------------------------------------------
  Alpha Z     0.02803     0.02803     0.02803
  Ewald      62.99161   -21.81647    80.70044     0.00364     0.00029    25.44132
  Hartree   175.95638   160.81544   178.98534     0.00025    -0.00015     4.34273
  E(xc)     -36.06548   -36.42749   -36.00034    -0.00000     0.00000     0.09377
  Local    -322.45915  -248.18808  -338.22348    -0.00125    -0.00092   -22.62578
  n-local   -30.68886   -30.79512   -30.42229     0.00052    -0.00042     0.38358
  augment     6.41436     8.15679     6.09715    -0.00001     0.00002    -0.45615
  Kinetic   143.81895   168.22386   138.83117    -0.00151     0.00018    -7.17969
  Fock        0.00000     0.00000     0.00000     0.00000     0.00000     0.00000
  -------------------------------------------------------------------------------------
  Total      -0.00415    -0.00304    -0.00397     0.00000     0.00000    -0.00021
  in kB      -0.00083    -0.00061    -0.00080     0.00000     0.00000    -0.00004
  external pressure =       -0.00 kB  Pullay stress =        0.00 kB


 VOLUME and BASIS-vectors are now :
 -----------------------------------------------------------------------------
  energy-cutoff  :     1300.00
  volume of cell :     8000.00
      direct lattice vectors                 reciprocal lattice vectors
    20.000000000  0.000000000  0.000000000     0.050000000  0.000000000  0.000000000
     0.000000000 20.000000000  0.000000000     0.000000000  0.050000000  0.000000000
     0.000000000  0.000000000 20.000000000     0.000000000  0.000000000  0.050000000

  length of vectors
    20.000000000 20.000000000 20.000000000     0.050000000  0.050000000  0.050000000


 FORCES acting on ions
    electron-ion (+dipol)            ewald-force                    non-local-force                 convergence-correction
 -----------------------------------------------------------------------------------------------
   0.130E+00 -.855E-02 -.880E+02   -.178E+00 -.822E-03 0.963E+02   0.481E-01 0.000E+00 -.832E+01   0.862E-04 0.324E-07 -.411E-04
   0.832E+02 -.455E-02 0.288E+02   -.911E+02 -.388E-02 -.314E+02   0.788E+01 0.271E-19 0.269E+01   0.452E-04 0.480E-07 -.584E-04
   -.513E+02 -.117E+00 0.365E+02   0.912E+02 0.471E-02 -.649E+02   -.400E+02 0.867E-18 0.284E+02   0.143E-02 -.151E-06 -.546E-03
 -----------------------------------------------------------------------------------------------
   0.320E+02 -.130E+00 -.228E+02   0.000E+00 -.520E-17 0.000E+00   -.320E+02 0.894E-18 0.228E+02   0.156E-02 -.704E-07 -.646E-03
 
 
 POSITION                                       TOTAL-FORCE (eV/Angst)
 -----------------------------------------------------------------------------------
      5.09120      0.00007      1.41862         0.000043      0.000000     -0.000389
      4.20048      0.00004      0.16630         0.000024      0.000000     -0.000071
      5.13058      0.00008      0.44768        -0.000067     -0.000000      0.000459
 -----------------------------------------------------------------------------------
    total drift:                                0.000014     -0.130282      0.000175


--------------------------------------------------------------------------------------------------------



  FREE ENERGIE OF THE ION-ELECTRON SYSTEM (eV)
  ---------------------------------------------------
  free  energy   TOTEN  =       -14.23397193 eV

  energy  without entropy=      -14.23397193  energy(sigma->0) =      -14.23397193
 
 d Force = 0.5804908E-07[ 0.962E-08, 0.106E-06]  d Energy = 0.5856907E-07-0.520E-09
 d Force =-0.2307588E-02[-0.231E-02,-0.231E-02]  d Ewald  =-0.2307588E-02 0.317E-10


--------------------------------------------------------------------------------------------------------


    POTLOK:  cpu time     14.0766: real time     14.0794


--------------------------------------------------------------------------------------------------------


 Conjugate gradient step on ions:
 trial-energy change:   -0.000000  1 .order   -0.000000   -0.000000   -0.000000
  (g-gl).g = 0.246E-06      g.g   = 0.238E-06  gl.gl    = 0.268E-06
 g(Force)  = 0.238E-06   g(Stress)= 0.000E+00 ortho     =-0.795E-08
 gamma     =   0.91589
 trial     =   0.46179
 opt step  =   0.50767  (harmonic =   0.50767) maximal distance =0.00003712
 next E    =   -14.233972   (d E  =  -0.00000)


--------------------------------------------------------------------------------------------------------


  
 reached required accuracy - stopping structural energy minimisation
 writing wavefunctions
     LOOP+:  cpu time     87.2101: real time     87.2160
    4ORBIT:  cpu time      0.0000: real time      0.0000

 total amount of memory used by VASP MPI-rank0  4741286. kBytes
=======================================================================

   base      :      30000. kBytes
   nonl-proj :     149800. kBytes
   fftplans  :    1595628. kBytes
   grid      :    2856902. kBytes
   one-center:          9. kBytes
   wavefun   :     108947. kBytes
 
  
  
 General timing and accounting informations for this job:
 ========================================================
  
                  Total CPU time used (sec):     3140.794
                            User time (sec):     2955.732
                          System time (sec):      185.062
                         Elapsed time (sec):     3141.305
  
                   Maximum memory used (kb):     7422584.
                   Average memory used (kb):          N/A
  
                          Minor page faults:    183973515
                          Major page faults:            0
                 Voluntary context switches:          561
