 vasp.6.4.1 05Apr23 (build Jun 06 2023 10:26:43) complex                        
  
 executed on             LinuxIFC date 2023.06.30  14:36:10
 running    1 mpi-ranks, on    1 nodes
 distrk:  each k-point on    1 cores,    1 groups
 distr:  one band on NCORE=   1 cores,    1 groups


--------------------------------------------------------------------------------------------------------


 INCAR:
   SYSTEM = BN
   GGA = PE
   ISMEAR = 0
   EDIFF = 1.0E-6
   EDIFFG = -1.0E-3
   KPAR = 1
   NCSHMEM = -1
   PREC = Normal
   NCORE = 4
   IBRION = 2
   POTIM = 0.5
   NSW = 101
   ENCUT = 1400

 POTCAR:    PAW_PBE H 15Jun2001                   
 POTCAR:    PAW_PBE O 08Apr2002                   
 -----------------------------------------------------------------------------
|                                                                             |
|           W    W    AA    RRRRR   N    N  II  N    N   GGGG   !!!           |
|           W    W   A  A   R    R  NN   N  II  NN   N  G    G  !!!           |
|           W    W  A    A  R    R  N N  N  II  N N  N  G       !!!           |
|           W WW W  AAAAAA  RRRRR   N  N N  II  N  N N  G  GGG   !            |
|           WW  WW  A    A  R   R   N   NN  II  N   NN  G    G                |
|           W    W  A    A  R    R  N    N  II  N    N   GGGG   !!!           |
|                                                                             |
|     The value NCORE = 4 specified in the INCAR file was overwritten,        |
|     because it was not compatible with the 1 processes available:           |
|     NCORE = 1                                                               |
|     was used instead, please check that this makes sense for your           |
|     machine.                                                                |
|                                                                             |
 -----------------------------------------------------------------------------

 POTCAR:    PAW_PBE H 15Jun2001                   
   VRHFIN =H: ultrasoft test                                                                        
   LEXCH  = PE                                                                                      
   EATOM  =    12.4884 eV,    0.9179 Ry                                                             
                                                                                                    
   TITEL  = PAW_PBE H 15Jun2001                                                                     
   LULTRA =        F    use ultrasoft PP ?                                                          
   IUNSCR =        0    unscreen: 0-lin 1-nonlin 2-no                                               
   RPACOR =    0.000    partial core radius                                                         
   POMASS =    1.000; ZVAL   =    1.000    mass and valenz                                          
   RCORE  =    1.100    outmost cutoff radius                                                       
   RWIGS  =    0.700; RWIGS  =    0.370    wigner-seitz radius (au A)                               
   ENMAX  =  250.000; ENMIN  =  200.000 eV                                                          
   RCLOC  =    0.701    cutoff for local pot                                                        
   LCOR   =        T    correct aug charges                                                         
   LPAW   =        T    paw PP                                                                      
   EAUG   =  400.000                                                                                
   RMAX   =    1.123    core radius for proj-oper                                                   
   RAUG   =    1.200    factor for augmentation sphere                                              
   RDEP   =    1.112    radius for radial grids                                                     
   RDEPT  =    0.926    core radius for aug-charge                                                  
                                                                                                    
   Atomic configuration                                                                             
    2 entries                                                                                       
     n  l   j            E        occ.                                                              
     1  0  0.50        -6.4927   1.0000                                                             
     2  1  0.50        -3.4015   0.0000                                                             
   Description                                                                                      
     l       E           TYP  RCUT    TYP  RCUT                                                     
     0     -6.4927494     23  1.100                                                                 
     0      6.8029130     23  1.100                                                                 
     1     -4.0817478     23  1.100                                                                 
  local pseudopotential read in
  atomic valenz-charges read in
  non local Contribution for L=           0  read in
    real space projection operators read in
  non local Contribution for L=           0  read in
    real space projection operators read in
  non local Contribution for L=           1  read in
    real space projection operators read in
    PAW grid and wavefunctions read in
 
   number of l-projection  operators is LMAX  =           3
   number of lm-projection operators is LMMAX =           5
 
 POTCAR:    PAW_PBE O 08Apr2002                   
   VRHFIN =O: s2p4                                                                                  
   LEXCH  = PE                                                                                      
   EATOM  =   432.3788 eV,   31.7789 Ry                                                             
                                                                                                    
   TITEL  = PAW_PBE O 08Apr2002                                                                     
   LULTRA =        F    use ultrasoft PP ?                                                          
   IUNSCR =        1    unscreen: 0-lin 1-nonlin 2-no                                               
   RPACOR =    1.200    partial core radius                                                         
   POMASS =   16.000; ZVAL   =    6.000    mass and valenz                                          
   RCORE  =    1.520    outmost cutoff radius                                                       
   RWIGS  =    1.550; RWIGS  =    0.820    wigner-seitz radius (au A)                               
   ENMAX  =  400.000; ENMIN  =  300.000 eV                                                          
   ICORE  =        2    local potential                                                             
   LCOR   =        T    correct aug charges                                                         
   LPAW   =        T    paw PP                                                                      
   EAUG   =  605.392                                                                                
   DEXC   =    0.000                                                                                
   RMAX   =    1.553    core radius for proj-oper                                                   
   RAUG   =    1.300    factor for augmentation sphere                                              
   RDEP   =    1.550    radius for radial grids                                                     
   RDEPT  =    1.329    core radius for aug-charge                                                  
                                                                                                    
   Atomic configuration                                                                             
    4 entries                                                                                       
     n  l   j            E        occ.                                                              
     1  0  0.50      -514.6923   2.0000                                                             
     2  0  0.50       -23.9615   2.0000                                                             
     2  1  0.50        -9.0305   4.0000                                                             
     3  2  1.50        -9.5241   0.0000                                                             
   Description                                                                                      
     l       E           TYP  RCUT    TYP  RCUT                                                     
     0    -23.9615318     23  1.200                                                                 
     0     -9.5240782     23  1.200                                                                 
     1     -9.0304911     23  1.520                                                                 
     1      8.1634956     23  1.520                                                                 
     2     -9.5240782      7  1.500                                                                 
  local pseudopotential read in
  partial core-charges read in
  partial kinetic energy density read in
  kinetic energy density of atom read in
  atomic valenz-charges read in
  non local Contribution for L=           0  read in
    real space projection operators read in
  non local Contribution for L=           0  read in
    real space projection operators read in
  non local Contribution for L=           1  read in
    real space projection operators read in
  non local Contribution for L=           1  read in
    real space projection operators read in
    PAW grid and wavefunctions read in
 
   number of l-projection  operators is LMAX  =           4
   number of lm-projection operators is LMMAX =           8
 
  PAW_PBE H 15Jun2001                   :
 energy of atom  1       EATOM=  -12.4884
 kinetic energy error for atom=    0.0000 (will be added to EATOM!!)
  PAW_PBE O 08Apr2002                   :
 energy of atom  2       EATOM= -432.3788
 kinetic energy error for atom=    0.0005 (will be added to EATOM!!)
 
 
 POSCAR: Water molecule
  positions in cartesian coordinates
  No initial velocities read in
 exchange correlation table for  LEXCH =        8
   RHO(1)=    0.500       N(1)  =     2000
   RHO(2)=  100.500       N(2)  =     4000
 


--------------------------------------------------------------------------------------------------------


 ion  position               nearest neighbor table
   1  0.255  0.000  0.072-   3 1.00
   2  0.209  0.000  0.007-   3 1.00
   3  0.257  0.000  0.022-   1 1.00   2 1.00
 
  LATTYP: Found a simple cubic cell.
 ALAT       =    20.0000000000
  
  Lattice vectors:
  
 A1 = (  20.0000000000,   0.0000000000,   0.0000000000)
 A2 = (   0.0000000000,  20.0000000000,   0.0000000000)
 A3 = (   0.0000000000,   0.0000000000,  20.0000000000)


Analysis of symmetry for initial positions (statically):
=====================================================================
 Subroutine PRICEL returns:
 Original cell was already a primitive cell.
 

 Routine SETGRP: Setting up the symmetry group for a 
 simple cubic supercell.


 Subroutine GETGRP returns: Found  2 space group operations
 (whereof  2 operations were pure point group operations)
 out of a pool of 48 trial point group operations.


The static configuration has the point symmetry C_1h.


Analysis of symmetry for dynamics (positions and initial velocities):
=====================================================================
 Subroutine PRICEL returns:
 Original cell was already a primitive cell.
 

 Routine SETGRP: Setting up the symmetry group for a 
 simple cubic supercell.


 Subroutine GETGRP returns: Found  2 space group operations
 (whereof  2 operations were pure point group operations)
 out of a pool of 48 trial point group operations.


The dynamic configuration has the point symmetry C_1h.


 Subroutine INISYM returns: Found  2 space group operations
 (whereof  2 operations are pure point group operations),
 and found     1 'primitive' translations


----------------------------------------------------------------------------------------

                                     Primitive cell                                     

  volume of cell :    8000.0000

  direct lattice vectors                    reciprocal lattice vectors
    20.000000000  0.000000000  0.000000000     0.050000000  0.000000000  0.000000000
     0.000000000 20.000000000  0.000000000     0.000000000  0.050000000  0.000000000
     0.000000000  0.000000000 20.000000000     0.000000000  0.000000000  0.050000000

  length of vectors
    20.000000000 20.000000000 20.000000000     0.050000000  0.050000000  0.050000000

  position of ions in fractional coordinates (direct lattice)
     0.255395500  0.000003500  0.072266000
     0.209022500  0.000002000  0.007084000
     0.256695000  0.000004000  0.022280500

  ion indices of the primitive-cell ions
   primitive index   ion index
                 1           1
                 2           2
                 3           3

----------------------------------------------------------------------------------------

 
 
 KPOINTS: Automatically generated mesh            

Automatic generation of k-mesh.
 Grid dimensions read from file:
 generate k-points for:    1    1    1

 Generating k-lattice:

  Cartesian coordinates                     Fractional coordinates (reciprocal lattice)
     0.050000000  0.000000000  0.000000000     1.000000000  0.000000000  0.000000000
     0.000000000  0.050000000  0.000000000     0.000000000  1.000000000  0.000000000
     0.000000000  0.000000000  0.050000000     0.000000000  0.000000000  1.000000000

  Length of vectors
     0.050000000  0.050000000  0.050000000

  Shift w.r.t. Gamma in fractional coordinates (k-lattice)
     0.000000000  0.000000000  0.000000000

 
 Subroutine IBZKPT returns following result:
 ===========================================
 
 Found      1 irreducible k-points:
 
 Following reciprocal coordinates:
            Coordinates               Weight
  0.000000  0.000000  0.000000      1.000000
 
 Following cartesian coordinates:
            Coordinates               Weight
  0.000000  0.000000  0.000000      1.000000
 


--------------------------------------------------------------------------------------------------------




 Dimension of arrays:
   k-points           NKPTS =      1   k-points in BZ     NKDIM =      1   number of bands    NBANDS=      8
   number of dos      NEDOS =    301   number of ions     NIONS =      3
   non local maximal  LDIM  =      4   non local SUM 2l+1 LMDIM =      8
   total plane-waves  NPLWV = ******
   max r-space proj   IRMAX =      1   max aug-charges    IRDMAX=  11677
   dimension x,y,z NGX =   192 NGY =  192 NGZ =  192
   dimension x,y,z NGXF=   384 NGYF=  384 NGZF=  384
   support grid    NGXF=   384 NGYF=  384 NGZF=  384
   ions per type =               2   1
   NGX,Y,Z   is equivalent  to a cutoff of  15.96, 15.96, 15.96 a.u.
   NGXF,Y,Z  is equivalent  to a cutoff of  31.92, 31.92, 31.92 a.u.

 SYSTEM =  BN                                      
 POSCAR =  Water molecule                          

 Startparameter for this run:
   NWRITE =      2    write-flag & timer
   PREC   = normal    normal or accurate (medium, high low for compatibility)
   ISTART =      1    job   : 0-new  1-cont  2-samecut
   ICHARG =      0    charge: 1-file 2-atom 10-const
   ISPIN  =      1    spin polarized calculation?
   LNONCOLLINEAR =      F non collinear calculations
   LSORBIT =      F    spin-orbit coupling
   INIWAV =      1    electr: 0-lowe 1-rand  2-diag
   LASPH  =      F    aspherical Exc in radial PAW
 Electronic Relaxation 1
   ENCUT  = 1400.0 eV 102.90 Ry   10.14 a.u.  61.02 61.02 61.02*2*pi/ulx,y,z
   ENINI  = 1400.0     initial cutoff
   ENAUG  =  605.4 eV  augmentation charge cutoff
   NELM   =     60;   NELMIN=  2; NELMDL=  0     # of ELM steps 
   EDIFF  = 0.1E-05   stopping-criterion for ELM
   LREAL  =      F    real-space projection
   NLSPLINE    = F    spline interpolate recip. space projectors
   LCOMPAT=      F    compatible to vasp.4.4
   GGA_COMPAT  = T    GGA compatible to vasp.4.4-vasp.4.6
   LMAXPAW     = -100 max onsite density
   LMAXMIX     =    2 max onsite mixed and CHGCAR
   VOSKOWN=      0    Vosko Wilk Nusair interpolation
   ROPT   =    0.00000   0.00000
 Ionic relaxation
   EDIFFG = -.1E-02   stopping-criterion for IOM
   NSW    =    101    number of steps for IOM
   NBLOCK =      1;   KBLOCK =    101    inner block; outer block 
   IBRION =      2    ionic relax: 0-MD 1-quasi-New 2-CG
   NFREE  =      1    steps in history (QN), initial steepest desc. (CG)
   ISIF   =      2    stress and relaxation
   IWAVPR =     11    prediction:  0-non 1-charg 2-wave 3-comb
   ISYM   =      2    0-nonsym 1-usesym 2-fastsym
   LCORR  =      T    Harris-Foulkes like correction to forces

   POTIM  = 0.5000    time-step for ionic-motion
   TEIN   =    0.0    initial temperature
   TEBEG  =    0.0;   TEEND  =   0.0 temperature during run
   SMASS  =  -3.00    Nose mass-parameter (am)
   estimated Nose-frequenzy (Omega)   =  0.10E-29 period in steps = 0.13E+47 mass=  -0.914E-26a.u.
   SCALEE = 1.0000    scale energy and forces
   NPACO  =    256;   APACO  = 10.0  distance and # of slots for P.C.
   PSTRESS=    0.0 pullay stress

  Mass of Ions in am
   POMASS =   1.00 16.00
  Ionic Valenz
   ZVAL   =   1.00  6.00
  Atomic Wigner-Seitz radii
   RWIGS  =  -1.00 -1.00
  virtual crystal weights 
   VCA    =   1.00  1.00
   NELECT =       8.0000    total number of electrons
   NUPDOWN=      -1.0000    fix difference up-down

 DOS related values:
   EMIN   =  10.00;   EMAX   =-10.00  energy-range for DOS
   EFERMI =   0.00;   METHOD = LEGACY      
   ISMEAR =     0;   SIGMA  =   0.20  broadening in eV -4-tet -1-fermi 0-gaus

 Electronic relaxation 2 (details)
   IALGO  =     38    algorithm
   LDIAG  =      T    sub-space diagonalisation (order eigenvalues)
   LSUBROT=      F    optimize rotation matrix (better conditioning)
   TURBO    =      0    0=normal 1=particle mesh
   IRESTART =      0    0=no restart 2=restart with 2 vectors
   NREBOOT  =      0    no. of reboots
   NMIN     =      0    reboot dimension
   EREF     =   0.00    reference energy to select bands
   IMIX   =      4    mixing-type and parameters
     AMIX     =   0.40;   BMIX     =  1.00
     AMIX_MAG =   1.60;   BMIX_MAG =  1.00
     AMIN     =   0.10
     WC   =   100.;   INIMIX=   1;  MIXPRE=   1;  MAXMIX= -45

 Intra band minimization:
   WEIMIN = 0.0010     energy-eigenvalue tresh-hold
   EBREAK =  0.31E-07  absolut break condition
   DEPER  =   0.30     relativ break condition  

   TIME   =   0.40     timestep for ELM

  volume/ion in A,a.u.               =    2666.67     17995.55
  Fermi-wavevector in a.u.,A,eV,Ry     =   0.163710  0.309367  0.364649  0.026801
  Thomas-Fermi vector in A             =   0.862763
 
 Write flags
   LWAVE        =      T    write WAVECAR
   LDOWNSAMPLE  =      F    k-point downsampling of WAVECAR
   LCHARG       =      T    write CHGCAR
   LVTOT        =      F    write LOCPOT, total local potential
   LVHAR        =      F    write LOCPOT, Hartree potential only
   LELF         =      F    write electronic localiz. function (ELF)
   LORBIT       =      0    0 simple, 1 ext, 2 COOP (PROOUT), +10 PAW based schemes


 Dipole corrections
   LMONO  =      F    monopole corrections only (constant potential shift)
   LDIPOL =      F    correct potential (dipole corrections)
   IDIPOL =      0    1-x, 2-y, 3-z, 4-all directions 
   EPSILON=  1.0000000 bulk dielectric constant

 Exchange correlation treatment:
   GGA     =    PE    GGA type
   LEXCH   =     8    internal setting for exchange type
   LIBXC   =     F    Libxc                    
   VOSKOWN =     0    Vosko Wilk Nusair interpolation
   LHFCALC =     F    Hartree Fock is set to
   LHFONE  =     F    Hartree Fock one center treatment
   AEXX    =    0.0000 exact exchange contribution

 Linear response parameters
   LEPSILON=     F    determine dielectric tensor
   LRPA    =     F    only Hartree local field effects (RPA)
   LNABLA  =     F    use nabla operator in PAW spheres
   LVEL    =     F    velocity operator in full k-point grid
   CSHIFT  =0.1000    complex shift for real part using Kramers Kronig
   OMEGAMAX=  -1.0    maximum frequency
   DEG_THRESHOLD= 0.2000000E-02 threshold for treating states as degnerate
   RTIME   =   -0.100 relaxation time in fs
  (WPLASMAI=    0.000 imaginary part of plasma frequency in eV, 0.658/RTIME)
   DFIELD  = 0.0000000 0.0000000 0.0000000 field for delta impulse in time
 
  Optional k-point grid parameters
   LKPOINTS_OPT  =     F    use optional k-point grid
   KPOINTS_OPT_MODE=     1    mode for optional k-point grid
 
 Orbital magnetization related:
   ORBITALMAG=     F  switch on orbital magnetization
   LCHIMAG   =     F  perturbation theory with respect to B field
   DQ        =  0.001000  dq finite difference perturbation B field
   LLRAUG    =     F  two centre corrections for induced B field
   LBONE     =     F  B-component reconstruction in AE one-centre
   LVGVCALC  =     T  calculate vGv susceptibility
   LVGVAPPL  =     F  apply vGv susceptibility instead of pGv for G=0

 Random number generation:
   RANDOM_GENERATOR = DEFAULT
   PCG_SEED         = not used


--------------------------------------------------------------------------------------------------------


 conjugate gradient relaxation of ions
 charge density and potential will be updated during run
 non-spin polarized calculation
 Variant of blocked Davidson
 Davidson routine will perform the subspace rotation
 perform sub-space diagonalisation
    after iterative eigenvector-optimisation
 modified Broyden-mixing scheme, WC =      100.0
 initial mixing is a Kerker type mixing with AMIX =  0.4000 and BMIX =      1.0000
 Hartree-type preconditioning will be used
 using additional bands            4
 reciprocal scheme for non local part
 use partial core corrections
 calculate Harris-corrections to forces 
   (improved forces if not selfconsistent)
 use gradient corrections 
 use of overlap-Matrix (Vanderbilt PP)
 Gauss-broadening in eV      SIGMA  =   0.20


--------------------------------------------------------------------------------------------------------


  energy-cutoff  :     1400.00
  volume of cell :     8000.00
      direct lattice vectors                 reciprocal lattice vectors
    20.000000000  0.000000000  0.000000000     0.050000000  0.000000000  0.000000000
     0.000000000 20.000000000  0.000000000     0.000000000  0.050000000  0.000000000
     0.000000000  0.000000000 20.000000000     0.000000000  0.000000000  0.050000000

  length of vectors
    20.000000000 20.000000000 20.000000000     0.050000000  0.050000000  0.050000000


 
 old parameters found on file WAVECAR:
  energy-cutoff  :     1300.00
  volume of cell :     8000.00
      direct lattice vectors                 reciprocal lattice vectors
    20.000000000  0.000000000  0.000000000     0.050000000  0.000000000  0.000000000
     0.000000000 20.000000000  0.000000000     0.000000000  0.050000000  0.000000000
     0.000000000  0.000000000 20.000000000     0.000000000  0.000000000  0.050000000

  length of vectors

 
 k-points in units of 2pi/SCALE and weight: Automatically generated mesh            
   0.00000000  0.00000000  0.00000000       1.000
 
 k-points in reciprocal lattice and weights: Automatically generated mesh            
   0.00000000  0.00000000  0.00000000       1.000
 
 position of ions in fractional coordinates (direct lattice) 
   0.25539550  0.00000350  0.07226600
   0.20902250  0.00000200  0.00708400
   0.25669500  0.00000400  0.02228050
 
 position of ions in cartesian coordinates  (Angst):
   5.10791000  0.00007000  1.44532000
   4.18045000  0.00004000  0.14168000
   5.13390000  0.00008000  0.44561000
 


--------------------------------------------------------------------------------------------------------


 k-point   1 :   0.0000 0.0000 0.0000  plane waves:  951611

 maximum and minimum number of plane-waves per node :    951611   951611

 maximum number of plane-waves:    951611
 maximum index in each direction: 
   IXMAX=   61   IYMAX=   61   IZMAX=   61
   IXMIN=  -61   IYMIN=  -61   IZMIN=  -61


 serial   3D FFT for wavefunctions
 parallel 3D FFT for charge:
    minimum data exchange during FFTs selected (reduces bandwidth)


 total amount of memory used by VASP MPI-rank0  5721495. kBytes
=======================================================================

   base      :      30000. kBytes
   nonl-proj :     167483. kBytes
   fftplans  :    1935800. kBytes
   grid      :    3466395. kBytes
   one-center:          9. kBytes
   wavefun   :     121808. kBytes
 
     INWAV:  cpu time      0.2392: real time      0.2392
 Broyden mixing: mesh for mixing (old mesh)
   NGX =123   NGY =123   NGZ =123
  (NGX  =384   NGY  =384   NGZ  =384)
  gives a total of ****** points

 charge density for first step will be calculated from the start-wavefunctions


--------------------------------------------------------------------------------------------------------


 Maximum index for augmentation-charges        11133 (set IRDMAX)


--------------------------------------------------------------------------------------------------------


 initial charge from wavefunction
 First call to EWALD:  gamma=   0.089
 Maximum number of real-space cells 3x 3x 3
 Maximum number of reciprocal cells 3x 3x 3

    FEWALD:  cpu time      0.0008: real time      0.0008


--------------------------------------- Ionic step        1  -------------------------------------------




--------------------------------------- Iteration      1(   1)  ---------------------------------------


    POTLOK:  cpu time     18.4774: real time     18.4779
    SETDIJ:  cpu time      0.0023: real time      0.0023
     EDDAV:  cpu time      7.8012: real time      7.8013
       DOS:  cpu time      0.0001: real time      0.0001
    CHARGE:  cpu time      2.1090: real time      2.1091
    MIXING:  cpu time      0.7153: real time      0.7158
    --------------------------------------------
      LOOP:  cpu time     29.1052: real time     29.1065

 eigenvalue-minimisations  :    16
 total energy-change (2. order) :-0.1423176E+02  (-0.1519826E+00)
 number of electron       8.0000000 magnetization 
 augmentation part        0.6683669 magnetization 

 Broyden mixing:
  rms(total) = 0.11417E+00    rms(broyden)= 0.11417E+00
  rms(prec ) = 0.12349E+00
  weight for this iteration     100.00

 Free energy of the ion-electron system (eV)
  ---------------------------------------------------
  alpha Z        PSCENC =         0.02803141
  Ewald energy   TEWEN  =       116.41630449
  -Hartree energ DENC   =      -515.54623176
  -exchange      EXHF   =         0.00000000
  -V(xc)+E(xc)   XCENC  =        34.01795497
  PAW double counting   =       540.54525554     -542.60527757
  entropy T*S    EENTRO =        -0.00000000
  eigenvalues    EBANDS =      -104.44281502
  atomic energy  EATOM  =       457.35501840
  Solvation  Ediel_sol  =         0.00000000
  ---------------------------------------------------
  free energy    TOTEN  =       -14.23175955 eV

  energy without entropy =      -14.23175955  energy(sigma->0) =      -14.23175955


--------------------------------------------------------------------------------------------------------




--------------------------------------- Iteration      1(   2)  ---------------------------------------


    POTLOK:  cpu time     16.8302: real time     16.8306
    SETDIJ:  cpu time      0.0021: real time      0.0021
     EDDAV:  cpu time      9.9750: real time      9.9768
       DOS:  cpu time      0.0001: real time      0.0001
    CHARGE:  cpu time      2.0990: real time      2.0994
    MIXING:  cpu time      0.7461: real time      0.7464
    --------------------------------------------
      LOOP:  cpu time     29.6525: real time     29.6553

 eigenvalue-minimisations  :    24
 total energy-change (2. order) : 0.3395378E-01  (-0.1119863E-01)
 number of electron       8.0000000 magnetization 
 augmentation part        0.6775746 magnetization 

 Broyden mixing:
  rms(total) = 0.47255E-01    rms(broyden)= 0.47255E-01
  rms(prec ) = 0.50562E-01
  weight for this iteration     100.00

 eigenvalues of (default mixing * dielectric matrix)
  average eigenvalue GAMMA=   1.3012
  1.3012

 Free energy of the ion-electron system (eV)
  ---------------------------------------------------
  alpha Z        PSCENC =         0.02803141
  Ewald energy   TEWEN  =       116.41630449
  -Hartree energ DENC   =      -512.73458068
  -exchange      EXHF   =         0.00000000
  -V(xc)+E(xc)   XCENC  =        33.86696878
  PAW double counting   =       532.77271389     -534.81552523
  entropy T*S    EENTRO =        -0.00000000
  eigenvalues    EBANDS =      -107.08673683
  atomic energy  EATOM  =       457.35501840
  Solvation  Ediel_sol  =         0.00000000
  ---------------------------------------------------
  free energy    TOTEN  =       -14.19780577 eV

  energy without entropy =      -14.19780577  energy(sigma->0) =      -14.19780577


--------------------------------------------------------------------------------------------------------




--------------------------------------- Iteration      1(   3)  ---------------------------------------


    POTLOK:  cpu time     16.7481: real time     16.7497
    SETDIJ:  cpu time      0.0022: real time      0.0022
     EDDAV:  cpu time      9.9571: real time      9.9572
       DOS:  cpu time      0.0001: real time      0.0001
    CHARGE:  cpu time      2.0570: real time      2.0571
    MIXING:  cpu time      0.7579: real time      0.7579
    --------------------------------------------
      LOOP:  cpu time     29.5224: real time     29.5242

 eigenvalue-minimisations  :    24
 total energy-change (2. order) : 0.5614541E-02  (-0.1357370E-02)
 number of electron       8.0000000 magnetization 
 augmentation part        0.6798609 magnetization 

 Broyden mixing:
  rms(total) = 0.20126E-01    rms(broyden)= 0.20126E-01
  rms(prec ) = 0.21267E-01
  weight for this iteration     100.00

 eigenvalues of (default mixing * dielectric matrix)
  average eigenvalue GAMMA=   1.5668
  1.2869  1.8467

 Free energy of the ion-electron system (eV)
  ---------------------------------------------------
  alpha Z        PSCENC =         0.02803141
  Ewald energy   TEWEN  =       116.41630449
  -Hartree energ DENC   =      -511.90062691
  -exchange      EXHF   =         0.00000000
  -V(xc)+E(xc)   XCENC  =        33.82676645
  PAW double counting   =       529.23766565     -531.28386206
  entropy T*S    EENTRO =        -0.00000000
  eigenvalues    EBANDS =      -107.87148865
  atomic energy  EATOM  =       457.35501840
  Solvation  Ediel_sol  =         0.00000000
  ---------------------------------------------------
  free energy    TOTEN  =       -14.19219123 eV

  energy without entropy =      -14.19219123  energy(sigma->0) =      -14.19219123


--------------------------------------------------------------------------------------------------------




--------------------------------------- Iteration      1(   4)  ---------------------------------------


    POTLOK:  cpu time     16.2531: real time     16.2533
    SETDIJ:  cpu time      0.0021: real time      0.0021
     EDDAV:  cpu time     10.0725: real time     10.0730
       DOS:  cpu time      0.0001: real time      0.0001
    CHARGE:  cpu time      2.0634: real time      2.0634
    MIXING:  cpu time      0.7953: real time      0.7953
    --------------------------------------------
      LOOP:  cpu time     29.1866: real time     29.1873

 eigenvalue-minimisations  :    24
 total energy-change (2. order) : 0.5573641E-03  (-0.3807872E-03)
 number of electron       8.0000000 magnetization 
 augmentation part        0.6780405 magnetization 

 Broyden mixing:
  rms(total) = 0.54695E-02    rms(broyden)= 0.54695E-02
  rms(prec ) = 0.60641E-02
  weight for this iteration     100.00

 eigenvalues of (default mixing * dielectric matrix)
  average eigenvalue GAMMA=   1.4656
  2.1546  1.1211  1.1211

 Free energy of the ion-electron system (eV)
  ---------------------------------------------------
  alpha Z        PSCENC =         0.02803141
  Ewald energy   TEWEN  =       116.41630449
  -Hartree energ DENC   =      -511.83626060
  -exchange      EXHF   =         0.00000000
  -V(xc)+E(xc)   XCENC  =        33.82742063
  PAW double counting   =       527.98754881     -530.04140668
  entropy T*S    EENTRO =        -0.00000000
  eigenvalues    EBANDS =      -107.92829031
  atomic energy  EATOM  =       457.35501840
  Solvation  Ediel_sol  =         0.00000000
  ---------------------------------------------------
  free energy    TOTEN  =       -14.19163386 eV

  energy without entropy =      -14.19163386  energy(sigma->0) =      -14.19163386


--------------------------------------------------------------------------------------------------------




--------------------------------------- Iteration      1(   5)  ---------------------------------------


    POTLOK:  cpu time     16.2764: real time     16.2766
    SETDIJ:  cpu time      0.0022: real time      0.0022
     EDDAV:  cpu time     12.5184: real time     12.5185
       DOS:  cpu time      0.0001: real time      0.0001
    CHARGE:  cpu time      2.0582: real time      2.0583
    MIXING:  cpu time      0.8158: real time      0.8157
    --------------------------------------------
      LOOP:  cpu time     31.6710: real time     31.6714

 eigenvalue-minimisations  :    32
 total energy-change (2. order) :-0.2834725E-04  (-0.7753498E-04)
 number of electron       8.0000000 magnetization 
 augmentation part        0.6793096 magnetization 

 Broyden mixing:
  rms(total) = 0.33982E-02    rms(broyden)= 0.33982E-02
  rms(prec ) = 0.36638E-02
  weight for this iteration     100.00

 eigenvalues of (default mixing * dielectric matrix)
  average eigenvalue GAMMA=   1.5625
  2.4025  1.9178  1.1461  0.7837

 Free energy of the ion-electron system (eV)
  ---------------------------------------------------
  alpha Z        PSCENC =         0.02803141
  Ewald energy   TEWEN  =       116.41630449
  -Hartree energ DENC   =      -511.61016271
  -exchange      EXHF   =         0.00000000
  -V(xc)+E(xc)   XCENC  =        33.81634105
  PAW double counting   =       527.55923310     -529.61065054
  entropy T*S    EENTRO =        -0.00000000
  eigenvalues    EBANDS =      -108.14577740
  atomic energy  EATOM  =       457.35501840
  Solvation  Ediel_sol  =         0.00000000
  ---------------------------------------------------
  free energy    TOTEN  =       -14.19166221 eV

  energy without entropy =      -14.19166221  energy(sigma->0) =      -14.19166221


--------------------------------------------------------------------------------------------------------




--------------------------------------- Iteration      1(   6)  ---------------------------------------


    POTLOK:  cpu time     16.0848: real time     16.0858
    SETDIJ:  cpu time      0.0021: real time      0.0021
     EDDAV:  cpu time     12.5143: real time     12.5145
       DOS:  cpu time      0.0001: real time      0.0001
    CHARGE:  cpu time      2.0645: real time      2.0645
    MIXING:  cpu time      0.8655: real time      0.8655
    --------------------------------------------
      LOOP:  cpu time     31.5312: real time     31.5324

 eigenvalue-minimisations  :    32
 total energy-change (2. order) :-0.9686534E-04  (-0.3469898E-05)
 number of electron       8.0000000 magnetization 
 augmentation part        0.6792040 magnetization 

 Broyden mixing:
  rms(total) = 0.10718E-02    rms(broyden)= 0.10718E-02
  rms(prec ) = 0.12965E-02
  weight for this iteration     100.00

 eigenvalues of (default mixing * dielectric matrix)
  average eigenvalue GAMMA=   1.5075
  2.5255  1.9430  1.0671  1.0671  0.9350

 Free energy of the ion-electron system (eV)
  ---------------------------------------------------
  alpha Z        PSCENC =         0.02803141
  Ewald energy   TEWEN  =       116.41630449
  -Hartree energ DENC   =      -511.57166467
  -exchange      EXHF   =         0.00000000
  -V(xc)+E(xc)   XCENC  =        33.81557344
  PAW double counting   =       527.70330112     -529.75531548
  entropy T*S    EENTRO =        -0.00000000
  eigenvalues    EBANDS =      -108.18300778
  atomic energy  EATOM  =       457.35501840
  Solvation  Ediel_sol  =         0.00000000
  ---------------------------------------------------
  free energy    TOTEN  =       -14.19175908 eV

  energy without entropy =      -14.19175908  energy(sigma->0) =      -14.19175908


--------------------------------------------------------------------------------------------------------




--------------------------------------- Iteration      1(   7)  ---------------------------------------


    POTLOK:  cpu time     16.0462: real time     16.0485
    SETDIJ:  cpu time      0.0021: real time      0.0021
     EDDAV:  cpu time     12.4812: real time     12.4813
       DOS:  cpu time      0.0001: real time      0.0001
    CHARGE:  cpu time      2.0648: real time      2.0648
    MIXING:  cpu time      0.9126: real time      0.9127
    --------------------------------------------
      LOOP:  cpu time     31.5070: real time     31.5094

 eigenvalue-minimisations  :    32
 total energy-change (2. order) :-0.3768686E-04  (-0.1676170E-05)
 number of electron       8.0000000 magnetization 
 augmentation part        0.6790204 magnetization 

 Broyden mixing:
  rms(total) = 0.34036E-03    rms(broyden)= 0.34036E-03
  rms(prec ) = 0.60241E-03
  weight for this iteration     100.00

 eigenvalues of (default mixing * dielectric matrix)
  average eigenvalue GAMMA=   1.7304
  3.0967  2.3679  1.9543  0.9864  0.9864  0.9906

 Free energy of the ion-electron system (eV)
  ---------------------------------------------------
  alpha Z        PSCENC =         0.02803141
  Ewald energy   TEWEN  =       116.41630449
  -Hartree energ DENC   =      -511.57250264
  -exchange      EXHF   =         0.00000000
  -V(xc)+E(xc)   XCENC  =        33.81614661
  PAW double counting   =       527.79876608     -529.85138464
  entropy T*S    EENTRO =        -0.00000000
  eigenvalues    EBANDS =      -108.18217648
  atomic energy  EATOM  =       457.35501840
  Solvation  Ediel_sol  =         0.00000000
  ---------------------------------------------------
  free energy    TOTEN  =       -14.19179676 eV

  energy without entropy =      -14.19179676  energy(sigma->0) =      -14.19179676


--------------------------------------------------------------------------------------------------------




--------------------------------------- Iteration      1(   8)  ---------------------------------------


    POTLOK:  cpu time     16.0904: real time     16.0906
    SETDIJ:  cpu time      0.0021: real time      0.0021
     EDDAV:  cpu time     10.2926: real time     10.2927
       DOS:  cpu time      0.0001: real time      0.0001
    CHARGE:  cpu time      2.1077: real time      2.1077
    MIXING:  cpu time      0.9434: real time      0.9434
    --------------------------------------------
      LOOP:  cpu time     29.4363: real time     29.4366

 eigenvalue-minimisations  :    24
 total energy-change (2. order) :-0.6101350E-04  (-0.1579763E-05)
 number of electron       8.0000000 magnetization 
 augmentation part        0.6790509 magnetization 

 Broyden mixing:
  rms(total) = 0.17750E-03    rms(broyden)= 0.17750E-03
  rms(prec ) = 0.28191E-03
  weight for this iteration     100.00

 eigenvalues of (default mixing * dielectric matrix)
  average eigenvalue GAMMA=   1.7252
  3.6640  2.4915  1.8302  1.2601  0.9895  0.9895  0.8519

 Free energy of the ion-electron system (eV)
  ---------------------------------------------------
  alpha Z        PSCENC =         0.02803141
  Ewald energy   TEWEN  =       116.41630449
  -Hartree energ DENC   =      -511.52336363
  -exchange      EXHF   =         0.00000000
  -V(xc)+E(xc)   XCENC  =        33.81465620
  PAW double counting   =       527.89477926     -529.94750165
  entropy T*S    EENTRO =        -0.00000000
  eigenvalues    EBANDS =      -108.22978225
  atomic energy  EATOM  =       457.35501840
  Solvation  Ediel_sol  =         0.00000000
  ---------------------------------------------------
  free energy    TOTEN  =       -14.19185778 eV

  energy without entropy =      -14.19185778  energy(sigma->0) =      -14.19185778


--------------------------------------------------------------------------------------------------------




--------------------------------------- Iteration      1(   9)  ---------------------------------------


    POTLOK:  cpu time     16.0705: real time     16.0706
    SETDIJ:  cpu time      0.0022: real time      0.0022
     EDDAV:  cpu time     12.7946: real time     12.7951
       DOS:  cpu time      0.0001: real time      0.0001
    CHARGE:  cpu time      2.0924: real time      2.0924
    MIXING:  cpu time      1.0072: real time      1.0072
    --------------------------------------------
      LOOP:  cpu time     31.9669: real time     31.9675

 eigenvalue-minimisations  :    32
 total energy-change (2. order) :-0.1154633E-04  (-0.9479901E-07)
 number of electron       8.0000000 magnetization 
 augmentation part        0.6790397 magnetization 

 Broyden mixing:
  rms(total) = 0.15054E-03    rms(broyden)= 0.15054E-03
  rms(prec ) = 0.22377E-03
  weight for this iteration     100.00

 eigenvalues of (default mixing * dielectric matrix)
  average eigenvalue GAMMA=   1.9958
  4.9288  2.7484  2.4036  1.8840  1.1590  0.9761  0.9761  0.8905

 Free energy of the ion-electron system (eV)
  ---------------------------------------------------
  alpha Z        PSCENC =         0.02803141
  Ewald energy   TEWEN  =       116.41630449
  -Hartree energ DENC   =      -511.51827269
  -exchange      EXHF   =         0.00000000
  -V(xc)+E(xc)   XCENC  =        33.81463340
  PAW double counting   =       527.90253210     -529.95525801
  entropy T*S    EENTRO =        -0.00000000
  eigenvalues    EBANDS =      -108.23485842
  atomic energy  EATOM  =       457.35501840
  Solvation  Ediel_sol  =         0.00000000
  ---------------------------------------------------
  free energy    TOTEN  =       -14.19186932 eV

  energy without entropy =      -14.19186932  energy(sigma->0) =      -14.19186932


--------------------------------------------------------------------------------------------------------




--------------------------------------- Iteration      1(  10)  ---------------------------------------


    POTLOK:  cpu time     16.5778: real time     16.5785
    SETDIJ:  cpu time      0.0023: real time      0.0023
     EDDAV:  cpu time     10.2615: real time     10.2616
       DOS:  cpu time      0.0001: real time      0.0001
    CHARGE:  cpu time      2.0354: real time      2.0355
    MIXING:  cpu time      1.0310: real time      1.0310
    --------------------------------------------
      LOOP:  cpu time     29.9081: real time     29.9089

 eigenvalue-minimisations  :    24
 total energy-change (2. order) :-0.1807332E-04  (-0.2962583E-06)
 number of electron       8.0000000 magnetization 
 augmentation part        0.6790731 magnetization 

 Broyden mixing:
  rms(total) = 0.10928E-03    rms(broyden)= 0.10928E-03
  rms(prec ) = 0.13543E-03
  weight for this iteration     100.00

 eigenvalues of (default mixing * dielectric matrix)
  average eigenvalue GAMMA=   1.9828
  5.4389  3.0422  2.4550  1.8735  1.0936  1.0936  0.9548  0.9548  0.9388

 Free energy of the ion-electron system (eV)
  ---------------------------------------------------
  alpha Z        PSCENC =         0.02803141
  Ewald energy   TEWEN  =       116.41630449
  -Hartree energ DENC   =      -511.50349940
  -exchange      EXHF   =         0.00000000
  -V(xc)+E(xc)   XCENC  =        33.81422539
  PAW double counting   =       527.86992650     -529.92255819
  entropy T*S    EENTRO =        -0.00000000
  eigenvalues    EBANDS =      -108.24933599
  atomic energy  EATOM  =       457.35501840
  Solvation  Ediel_sol  =         0.00000000
  ---------------------------------------------------
  free energy    TOTEN  =       -14.19188740 eV

  energy without entropy =      -14.19188740  energy(sigma->0) =      -14.19188740


--------------------------------------------------------------------------------------------------------




--------------------------------------- Iteration      1(  11)  ---------------------------------------


    POTLOK:  cpu time     16.1613: real time     16.1615
    SETDIJ:  cpu time      0.0022: real time      0.0022
     EDDAV:  cpu time      9.9938: real time      9.9939
       DOS:  cpu time      0.0001: real time      0.0001
    CHARGE:  cpu time      2.0570: real time      2.0570
    MIXING:  cpu time      1.1203: real time      1.1202
    --------------------------------------------
      LOOP:  cpu time     29.3346: real time     29.3349

 eigenvalue-minimisations  :    24
 total energy-change (2. order) :-0.5826808E-05  (-0.3552463E-07)
 number of electron       8.0000000 magnetization 
 augmentation part        0.6790534 magnetization 

 Broyden mixing:
  rms(total) = 0.48444E-04    rms(broyden)= 0.48444E-04
  rms(prec ) = 0.68547E-04
  weight for this iteration     100.00

 eigenvalues of (default mixing * dielectric matrix)
  average eigenvalue GAMMA=   2.2425
  6.7172  3.8420  2.6906  2.3701  1.8876  1.1164  0.9977  0.9977  0.9029  0.9029

 Free energy of the ion-electron system (eV)
  ---------------------------------------------------
  alpha Z        PSCENC =         0.02803141
  Ewald energy   TEWEN  =       116.41630449
  -Hartree energ DENC   =      -511.50580999
  -exchange      EXHF   =         0.00000000
  -V(xc)+E(xc)   XCENC  =        33.81440536
  PAW double counting   =       527.87374880     -529.92642389
  entropy T*S    EENTRO =        -0.00000000
  eigenvalues    EBANDS =      -108.24716780
  atomic energy  EATOM  =       457.35501840
  Solvation  Ediel_sol  =         0.00000000
  ---------------------------------------------------
  free energy    TOTEN  =       -14.19189322 eV

  energy without entropy =      -14.19189322  energy(sigma->0) =      -14.19189322


--------------------------------------------------------------------------------------------------------




--------------------------------------- Iteration      1(  12)  ---------------------------------------


    POTLOK:  cpu time     15.9694: real time     15.9695
    SETDIJ:  cpu time      0.0022: real time      0.0022
     EDDAV:  cpu time      7.3586: real time      7.3587
       DOS:  cpu time      0.0001: real time      0.0001
    CHARGE:  cpu time      2.0127: real time      2.0127
    MIXING:  cpu time      1.1492: real time      1.1492
    --------------------------------------------
      LOOP:  cpu time     26.4921: real time     26.4923

 eigenvalue-minimisations  :    16
 total energy-change (2. order) :-0.7936634E-05  (-0.4304865E-07)
 number of electron       8.0000000 magnetization 
 augmentation part        0.6790532 magnetization 

 Broyden mixing:
  rms(total) = 0.21471E-04    rms(broyden)= 0.21471E-04
  rms(prec ) = 0.30079E-04
  weight for this iteration     100.00

 eigenvalues of (default mixing * dielectric matrix)
  average eigenvalue GAMMA=   2.2632
  7.1872  4.1358  2.7447  2.3943  1.7884  1.7205  1.0972  0.9778  0.9778  0.9629
  0.9084

 Free energy of the ion-electron system (eV)
  ---------------------------------------------------
  alpha Z        PSCENC =         0.02803141
  Ewald energy   TEWEN  =       116.41630449
  -Hartree energ DENC   =      -511.50513918
  -exchange      EXHF   =         0.00000000
  -V(xc)+E(xc)   XCENC  =        33.81443564
  PAW double counting   =       527.88282474     -529.93550742
  entropy T*S    EENTRO =        -0.00000000
  eigenvalues    EBANDS =      -108.24786924
  atomic energy  EATOM  =       457.35501840
  Solvation  Ediel_sol  =         0.00000000
  ---------------------------------------------------
  free energy    TOTEN  =       -14.19190116 eV

  energy without entropy =      -14.19190116  energy(sigma->0) =      -14.19190116


--------------------------------------------------------------------------------------------------------




--------------------------------------- Iteration      1(  13)  ---------------------------------------


    POTLOK:  cpu time     15.8338: real time     15.8339
    SETDIJ:  cpu time      0.0021: real time      0.0021
     EDDAV:  cpu time      9.8100: real time      9.8101
       DOS:  cpu time      0.0001: real time      0.0001
    CHARGE:  cpu time      2.0124: real time      2.0124
    MIXING:  cpu time      1.2081: real time      1.2081
    --------------------------------------------
      LOOP:  cpu time     28.8665: real time     28.8668

 eigenvalue-minimisations  :    24
 total energy-change (2. order) :-0.3013656E-05  (-0.7304321E-08)
 number of electron       8.0000000 magnetization 
 augmentation part        0.6790599 magnetization 

 Broyden mixing:
  rms(total) = 0.20261E-04    rms(broyden)= 0.20261E-04
  rms(prec ) = 0.24697E-04
  weight for this iteration     100.00

 eigenvalues of (default mixing * dielectric matrix)
  average eigenvalue GAMMA=   2.3493
  7.9528  4.4991  3.0732  2.4825  2.3505  1.8923  1.1144  1.1144  0.9615  0.9615
  0.8949  0.8949

 Free energy of the ion-electron system (eV)
  ---------------------------------------------------
  alpha Z        PSCENC =         0.02803141
  Ewald energy   TEWEN  =       116.41630449
  -Hartree energ DENC   =      -511.50421746
  -exchange      EXHF   =         0.00000000
  -V(xc)+E(xc)   XCENC  =        33.81439599
  PAW double counting   =       527.88093888     -529.93361196
  entropy T*S    EENTRO =        -0.00000000
  eigenvalues    EBANDS =      -108.24876393
  atomic energy  EATOM  =       457.35501840
  Solvation  Ediel_sol  =         0.00000000
  ---------------------------------------------------
  free energy    TOTEN  =       -14.19190417 eV

  energy without entropy =      -14.19190417  energy(sigma->0) =      -14.19190417


--------------------------------------------------------------------------------------------------------




--------------------------------------- Iteration      1(  14)  ---------------------------------------


    POTLOK:  cpu time     16.1197: real time     16.1198
    SETDIJ:  cpu time      0.0021: real time      0.0021
     EDDAV:  cpu time      7.3410: real time      7.3410
       DOS:  cpu time      0.0001: real time      0.0001
    CHARGE:  cpu time      2.0132: real time      2.0132
    MIXING:  cpu time      1.2700: real time      1.2700
    --------------------------------------------
      LOOP:  cpu time     26.7461: real time     26.7463

 eigenvalue-minimisations  :    16
 total energy-change (2. order) :-0.1924685E-05  (-0.4453364E-08)
 number of electron       8.0000000 magnetization 
 augmentation part        0.6790540 magnetization 

 Broyden mixing:
  rms(total) = 0.14484E-04    rms(broyden)= 0.14484E-04
  rms(prec ) = 0.16653E-04
  weight for this iteration     100.00

 eigenvalues of (default mixing * dielectric matrix)
  average eigenvalue GAMMA=   2.3435
  8.0798  5.0011  3.2311  2.6619  2.3286  1.8777  1.3896  1.0927  1.0927  0.9440
  0.9440  0.9243  0.8984

 Free energy of the ion-electron system (eV)
  ---------------------------------------------------
  alpha Z        PSCENC =         0.02803141
  Ewald energy   TEWEN  =       116.41630449
  -Hartree energ DENC   =      -511.50484355
  -exchange      EXHF   =         0.00000000
  -V(xc)+E(xc)   XCENC  =        33.81443925
  PAW double counting   =       527.88162103     -529.93430892
  entropy T*S    EENTRO =        -0.00000000
  eigenvalues    EBANDS =      -108.24816820
  atomic energy  EATOM  =       457.35501840
  Solvation  Ediel_sol  =         0.00000000
  ---------------------------------------------------
  free energy    TOTEN  =       -14.19190610 eV

  energy without entropy =      -14.19190610  energy(sigma->0) =      -14.19190610


--------------------------------------------------------------------------------------------------------




--------------------------------------- Iteration      1(  15)  ---------------------------------------


    POTLOK:  cpu time     16.5336: real time     16.5343
    SETDIJ:  cpu time      0.0024: real time      0.0024
     EDDAV:  cpu time      7.7643: real time      7.7647
       DOS:  cpu time      0.0001: real time      0.0001
    --------------------------------------------
      LOOP:  cpu time     24.3004: real time     24.3014

 eigenvalue-minimisations  :    16
 total energy-change (2. order) :-0.7213448E-06  (-0.1109424E-08)
 number of electron       8.0000000 magnetization 
 augmentation part        0.6790540 magnetization 

 Free energy of the ion-electron system (eV)
  ---------------------------------------------------
  alpha Z        PSCENC =         0.02803141
  Ewald energy   TEWEN  =       116.41630449
  -Hartree energ DENC   =      -511.50438120
  -exchange      EXHF   =         0.00000000
  -V(xc)+E(xc)   XCENC  =        33.81441665
  PAW double counting   =       527.88078381     -529.93346037
  entropy T*S    EENTRO =        -0.00000000
  eigenvalues    EBANDS =      -108.24862000
  atomic energy  EATOM  =       457.35501840
  Solvation  Ediel_sol  =         0.00000000
  ---------------------------------------------------
  free energy    TOTEN  =       -14.19190682 eV

  energy without entropy =      -14.19190682  energy(sigma->0) =      -14.19190682


--------------------------------------------------------------------------------------------------------




 average (electrostatic) potential at core
  the test charge radii are     0.5201  0.7215
  (the norm of the test charge is              1.0000)
       1 -44.3692       2 -44.3625       3 -80.5320
 
 
 
 E-fermi :  -6.1753     XC(G=0):  -0.0940     alpha+bet : -0.0163

 Fermi energy:        -6.1752875400

 k-point     1 :       0.0000    0.0000    0.0000
  band No.  band energies     occupation 
      1     -24.9518      2.00000
      2     -12.9113      2.00000
      3      -9.1352      2.00000
      4      -7.1260      2.00000
      5      -1.0745      0.00000
      6       0.0184      0.00000
      7       0.1999      0.00000
      8       0.3104      0.00000


--------------------------------------------------------------------------------------------------------


 soft charge-density along one line, spin component           1
         0         1         2         3         4         5         6         7         8         9
 total charge-density along one line
 
 pseudopotential strength for first ion, spin component:           1
 -2.381  -4.111  -0.000   0.003   0.000
 -4.111  -7.012  -0.000   0.008   0.000
 -0.000  -0.000  -0.326  -0.000  -0.000
  0.003   0.008  -0.000  -0.318  -0.000
  0.000   0.000  -0.000  -0.000  -0.326
 total augmentation occupancy for first ion, spin component:           1
  3.590  -0.755   0.000  -0.649   0.005
 -0.755   0.204   0.000   0.135  -0.006
  0.000   0.000   0.035   0.000   0.000
 -0.649   0.135   0.000   0.118  -0.003
  0.005  -0.006   0.000  -0.003   0.023


------------------------ aborting loop because EDIFF is reached ----------------------------------------


    CHARGE:  cpu time      2.1597: real time      2.1597
    FORLOC:  cpu time      1.4601: real time      1.4601
    FORNL :  cpu time      0.5972: real time      0.5972
    STRESS:  cpu time      6.5116: real time      6.5116
    FORCOR:  cpu time     18.6245: real time     18.6246
    FORHAR:  cpu time      5.1611: real time      5.1611
    MIXING:  cpu time      1.4068: real time      1.4068
    OFIELD:  cpu time      0.0000: real time      0.0000

  FORCE on cell =-STRESS in cart. coord.  units (eV):
  Direction    XX          YY          ZZ          XY          YZ          ZX
  --------------------------------------------------------------------------------------
  Alpha Z     0.02803     0.02803     0.02803
  Ewald      59.69800   -21.81814    78.53640     0.00341     0.00032    26.95786
  Hartree   174.39701   159.30170   177.80588     0.00023    -0.00014     4.88994
  E(xc)     -35.84575   -36.20373   -35.77169    -0.00000     0.00000     0.10650
  Local    -318.56538  -246.17908  -335.77872    -0.00107    -0.00100   -24.65245
  n-local   -30.01234   -30.46131   -29.76435     0.00055    -0.00044     0.36790
  augment     6.37229     8.08959     6.04973    -0.00001     0.00003    -0.46388
  Kinetic   142.78387   167.24221   137.40446    -0.00159     0.00024    -7.74683
  Fock        0.00000     0.00000     0.00000     0.00000     0.00000     0.00000
  -------------------------------------------------------------------------------------
  Total      -1.14428    -0.00072    -1.49027     0.00000     0.00000    -0.54096
  in kB      -0.22917    -0.00014    -0.29846     0.00000     0.00000    -0.10834
  external pressure =       -0.18 kB  Pullay stress =        0.00 kB


 VOLUME and BASIS-vectors are now :
 -----------------------------------------------------------------------------
  energy-cutoff  :     1400.00
  volume of cell :     8000.00
      direct lattice vectors                 reciprocal lattice vectors
    20.000000000  0.000000000  0.000000000     0.050000000  0.000000000  0.000000000
     0.000000000 20.000000000  0.000000000     0.000000000  0.050000000  0.000000000
     0.000000000  0.000000000 20.000000000     0.000000000  0.000000000  0.050000000

  length of vectors
    20.000000000 20.000000000 20.000000000     0.050000000  0.050000000  0.050000000


 FORCES acting on ions
    electron-ion (+dipol)            ewald-force                    non-local-force                 convergence-correction
 -----------------------------------------------------------------------------------------------
   -.107E+01 -.814E-02 -.847E+02   0.101E+01 -.758E-03 0.909E+02   -.111E+00 0.000E+00 -.752E+01   -.426E-05 0.663E-09 0.182E-04
   0.796E+02 -.434E-02 0.288E+02   -.854E+02 -.355E-02 -.308E+02   0.705E+01 -.271E-19 0.257E+01   -.175E-04 0.301E-10 -.387E-05
   -.468E+02 -.116E+00 0.334E+02   0.844E+02 0.431E-02 -.601E+02   -.386E+02 0.000E+00 0.275E+02   0.155E-04 0.382E-07 -.519E-04
 -----------------------------------------------------------------------------------------------
   0.317E+02 -.129E+00 -.225E+02   0.000E+00 -.607E-17 -.711E-14   -.317E+02 -.271E-19 0.225E+02   -.630E-05 0.389E-07 -.376E-04
 
 
 POSITION                                       TOTAL-FORCE (eV/Angst)
 -----------------------------------------------------------------------------------
      5.10791      0.00007      1.44532        -0.175117      0.000000     -1.306313
      4.18045      0.00004      0.14168         1.202905      0.000000      0.602787
      5.13390      0.00008      0.44561        -1.027788     -0.000000      0.703526
 -----------------------------------------------------------------------------------
    total drift:                               -0.000104     -0.128768     -0.000142


--------------------------------------------------------------------------------------------------------



  FREE ENERGIE OF THE ION-ELECTRON SYSTEM (eV)
  ---------------------------------------------------
  free  energy   TOTEN  =       -14.19190682 eV

  energy  without entropy=      -14.19190682  energy(sigma->0) =      -14.19190682
 


--------------------------------------------------------------------------------------------------------


    POTLOK:  cpu time     16.6694: real time     16.6696


--------------------------------------------------------------------------------------------------------




--------------------------------------------------------------------------------------------------------


    WAVPRE:  cpu time     47.1700: real time     47.1715
    FEWALD:  cpu time      0.0001: real time      0.0001
    ORTHCH:  cpu time      0.2436: real time      0.2436
     LOOP+:  cpu time    539.2349: real time    539.2510


--------------------------------------- Ionic step        2  -------------------------------------------




--------------------------------------- Iteration      2(   1)  ---------------------------------------


    POTLOK:  cpu time     16.2296: real time     16.2297
    SETDIJ:  cpu time      0.0021: real time      0.0021
     EDDAV:  cpu time      7.3793: real time      7.3793
       DOS:  cpu time      0.0001: real time      0.0001
    CHARGE:  cpu time      2.0244: real time      2.0244
    MIXING:  cpu time      0.7042: real time      0.7042
    --------------------------------------------
      LOOP:  cpu time     26.3396: real time     26.3398

 eigenvalue-minimisations  :    16
 total energy-change (2. order) : 0.1889685E+00  (-0.2974551E+01)
 number of electron       7.9999999 magnetization 
 augmentation part        0.7466534 magnetization 

 Broyden mixing:
  rms(total) = 0.20637E+00    rms(broyden)= 0.20637E+00
  rms(prec ) = 0.21805E+00
  weight for this iteration     100.00

 Free energy of the ion-electron system (eV)
  ---------------------------------------------------
  alpha Z        PSCENC =         0.02803141
  Ewald energy   TEWEN  =       136.00763986
  -Hartree energ DENC   =      -520.52489296
  -exchange      EXHF   =         0.00000000
  -V(xc)+E(xc)   XCENC  =        34.23625724
  PAW double counting   =       527.88095080     -529.93362860
  entropy T*S    EENTRO =        -0.00000000
  eigenvalues    EBANDS =      -119.05231370
  atomic energy  EATOM  =       457.35501840
  Solvation  Ediel_sol  =         0.00000000
  ---------------------------------------------------
  free energy    TOTEN  =       -14.00293755 eV

  energy without entropy =      -14.00293755  energy(sigma->0) =      -14.00293755


--------------------------------------------------------------------------------------------------------




--------------------------------------- Iteration      2(   2)  ---------------------------------------


    POTLOK:  cpu time     15.4077: real time     15.4079
    SETDIJ:  cpu time      0.0021: real time      0.0021
     EDDAV:  cpu time      7.3648: real time      7.3649
       DOS:  cpu time      0.0001: real time      0.0001
    CHARGE:  cpu time      2.0245: real time      2.0245
    MIXING:  cpu time      0.7277: real time      0.7277
    --------------------------------------------
      LOOP:  cpu time     25.5270: real time     25.5272

 eigenvalue-minimisations  :    16
 total energy-change (2. order) : 0.4362048E-01  (-0.6837630E-01)
 number of electron       7.9999999 magnetization 
 augmentation part        0.7366159 magnetization 

 Broyden mixing:
  rms(total) = 0.85421E-01    rms(broyden)= 0.85420E-01
  rms(prec ) = 0.89248E-01
  weight for this iteration     100.00

 eigenvalues of (default mixing * dielectric matrix)
  average eigenvalue GAMMA=   1.2822
  1.2822

 Free energy of the ion-electron system (eV)
  ---------------------------------------------------
  alpha Z        PSCENC =         0.02803141
  Ewald energy   TEWEN  =       136.00763986
  -Hartree energ DENC   =      -525.13269952
  -exchange      EXHF   =         0.00000000
  -V(xc)+E(xc)   XCENC  =        34.49665474
  PAW double counting   =       557.41170891     -559.55085806
  entropy T*S    EENTRO =        -0.00000000
  eigenvalues    EBANDS =      -114.57481281
  atomic energy  EATOM  =       457.35501840
  Solvation  Ediel_sol  =         0.00000000
  ---------------------------------------------------
  free energy    TOTEN  =       -13.95931707 eV

  energy without entropy =      -13.95931707  energy(sigma->0) =      -13.95931707


--------------------------------------------------------------------------------------------------------




--------------------------------------- Iteration      2(   3)  ---------------------------------------


    POTLOK:  cpu time     15.5609: real time     15.5610
    SETDIJ:  cpu time      0.0021: real time      0.0021
     EDDAV:  cpu time      7.3461: real time      7.3461
       DOS:  cpu time      0.0001: real time      0.0001
    CHARGE:  cpu time      2.0188: real time      2.0189
    MIXING:  cpu time      0.7696: real time      0.7696
    --------------------------------------------
      LOOP:  cpu time     25.6975: real time     25.6978

 eigenvalue-minimisations  :    16
 total energy-change (2. order) : 0.1044277E-01  (-0.6256110E-02)
 number of electron       7.9999999 magnetization 
 augmentation part        0.7271012 magnetization 

 Broyden mixing:
  rms(total) = 0.37546E-01    rms(broyden)= 0.37546E-01
  rms(prec ) = 0.39074E-01
  weight for this iteration     100.00

 eigenvalues of (default mixing * dielectric matrix)
  average eigenvalue GAMMA=   1.3497
  1.3497  1.3497

 Free energy of the ion-electron system (eV)
  ---------------------------------------------------
  alpha Z        PSCENC =         0.02803141
  Ewald energy   TEWEN  =       136.00763986
  -Hartree energ DENC   =      -526.84452585
  -exchange      EXHF   =         0.00000000
  -V(xc)+E(xc)   XCENC  =        34.59472480
  PAW double counting   =       577.80509979     -579.99651526
  entropy T*S    EENTRO =        -0.00000000
  eigenvalues    EBANDS =      -112.89834744
  atomic energy  EATOM  =       457.35501840
  Solvation  Ediel_sol  =         0.00000000
  ---------------------------------------------------
  free energy    TOTEN  =       -13.94887430 eV

  energy without entropy =      -13.94887430  energy(sigma->0) =      -13.94887430


--------------------------------------------------------------------------------------------------------




--------------------------------------- Iteration      2(   4)  ---------------------------------------


    POTLOK:  cpu time     15.7832: real time     15.7833
    SETDIJ:  cpu time      0.0021: real time      0.0021
     EDDAV:  cpu time      9.8245: real time      9.8245
       DOS:  cpu time      0.0001: real time      0.0001
    CHARGE:  cpu time      2.0256: real time      2.0256
    MIXING:  cpu time      0.7891: real time      0.7891
    --------------------------------------------
      LOOP:  cpu time     28.4245: real time     28.4248

 eigenvalue-minimisations  :    24
 total energy-change (2. order) : 0.1437859E-02  (-0.1269623E-02)
 number of electron       7.9999999 magnetization 
 augmentation part        0.7318550 magnetization 

 Broyden mixing:
  rms(total) = 0.19728E-01    rms(broyden)= 0.19728E-01
  rms(prec ) = 0.20629E-01
  weight for this iteration     100.00

 eigenvalues of (default mixing * dielectric matrix)
  average eigenvalue GAMMA=   1.4416
  2.3379  0.9935  0.9935

 Free energy of the ion-electron system (eV)
  ---------------------------------------------------
  alpha Z        PSCENC =         0.02803141
  Ewald energy   TEWEN  =       136.00763986
  -Hartree energ DENC   =      -526.27398682
  -exchange      EXHF   =         0.00000000
  -V(xc)+E(xc)   XCENC  =        34.56405092
  PAW double counting   =       585.19611789     -587.38717765
  entropy T*S    EENTRO =        -0.00000000
  eigenvalues    EBANDS =      -113.43713045
  atomic energy  EATOM  =       457.35501840
  Solvation  Ediel_sol  =         0.00000000
  ---------------------------------------------------
  free energy    TOTEN  =       -13.94743644 eV

  energy without entropy =      -13.94743644  energy(sigma->0) =      -13.94743644


--------------------------------------------------------------------------------------------------------




--------------------------------------- Iteration      2(   5)  ---------------------------------------


    POTLOK:  cpu time     15.8875: real time     15.8877
    SETDIJ:  cpu time      0.0021: real time      0.0021
     EDDAV:  cpu time      9.8254: real time      9.8254
       DOS:  cpu time      0.0001: real time      0.0001
    CHARGE:  cpu time      2.0178: real time      2.0179
    MIXING:  cpu time      0.8216: real time      0.8216
    --------------------------------------------
      LOOP:  cpu time     28.5545: real time     28.5548

 eigenvalue-minimisations  :    24
 total energy-change (2. order) : 0.4992461E-03  (-0.3243740E-03)
 number of electron       7.9999999 magnetization 
 augmentation part        0.7299527 magnetization 

 Broyden mixing:
  rms(total) = 0.28867E-02    rms(broyden)= 0.28867E-02
  rms(prec ) = 0.31787E-02
  weight for this iteration     100.00

 eigenvalues of (default mixing * dielectric matrix)
  average eigenvalue GAMMA=   1.4972
  2.3048  1.6322  1.1396  0.9121

 Free energy of the ion-electron system (eV)
  ---------------------------------------------------
  alpha Z        PSCENC =         0.02803141
  Ewald energy   TEWEN  =       136.00763986
  -Hartree energ DENC   =      -526.70131241
  -exchange      EXHF   =         0.00000000
  -V(xc)+E(xc)   XCENC  =        34.58909790
  PAW double counting   =       594.16794959     -596.37897642
  entropy T*S    EENTRO =        -0.00000000
  eigenvalues    EBANDS =      -113.01438552
  atomic energy  EATOM  =       457.35501840
  Solvation  Ediel_sol  =         0.00000000
  ---------------------------------------------------
  free energy    TOTEN  =       -13.94693719 eV

  energy without entropy =      -13.94693719  energy(sigma->0) =      -13.94693719


--------------------------------------------------------------------------------------------------------




--------------------------------------- Iteration      2(   6)  ---------------------------------------


    POTLOK:  cpu time     16.0136: real time     16.0137
    SETDIJ:  cpu time      0.0021: real time      0.0021
     EDDAV:  cpu time      9.8157: real time      9.8158
       DOS:  cpu time      0.0001: real time      0.0001
    CHARGE:  cpu time      2.0178: real time      2.0178
    MIXING:  cpu time      0.8672: real time      0.8672
    --------------------------------------------
      LOOP:  cpu time     28.7164: real time     28.7166

 eigenvalue-minimisations  :    24
 total energy-change (2. order) :-0.1721745E-03  (-0.1766114E-04)
 number of electron       7.9999999 magnetization 
 augmentation part        0.7295020 magnetization 

 Broyden mixing:
  rms(total) = 0.20155E-02    rms(broyden)= 0.20155E-02
  rms(prec ) = 0.22797E-02
  weight for this iteration     100.00

 eigenvalues of (default mixing * dielectric matrix)
  average eigenvalue GAMMA=   1.4689
  2.4772  1.8173  1.1377  0.9562  0.9562

 Free energy of the ion-electron system (eV)
  ---------------------------------------------------
  alpha Z        PSCENC =         0.02803141
  Ewald energy   TEWEN  =       136.00763986
  -Hartree energ DENC   =      -526.73593519
  -exchange      EXHF   =         0.00000000
  -V(xc)+E(xc)   XCENC  =        34.59061359
  PAW double counting   =       594.85700411     -597.07014382
  entropy T*S    EENTRO =        -0.00000000
  eigenvalues    EBANDS =      -112.97933772
  atomic energy  EATOM  =       457.35501840
  Solvation  Ediel_sol  =         0.00000000
  ---------------------------------------------------
  free energy    TOTEN  =       -13.94710937 eV

  energy without entropy =      -13.94710937  energy(sigma->0) =      -13.94710937


--------------------------------------------------------------------------------------------------------




--------------------------------------- Iteration      2(   7)  ---------------------------------------


    POTLOK:  cpu time     16.0854: real time     16.0855
    SETDIJ:  cpu time      0.0021: real time      0.0021
     EDDAV:  cpu time     10.0107: real time     10.0108
       DOS:  cpu time      0.0001: real time      0.0001
    CHARGE:  cpu time      2.0745: real time      2.0745
    MIXING:  cpu time      0.9025: real time      0.9025
    --------------------------------------------
      LOOP:  cpu time     29.0752: real time     29.0755

 eigenvalue-minimisations  :    24
 total energy-change (2. order) :-0.7376937E-04  (-0.4944463E-05)
 number of electron       7.9999999 magnetization 
 augmentation part        0.7298273 magnetization 

 Broyden mixing:
  rms(total) = 0.44763E-03    rms(broyden)= 0.44763E-03
  rms(prec ) = 0.74228E-03
  weight for this iteration     100.00

 eigenvalues of (default mixing * dielectric matrix)
  average eigenvalue GAMMA=   1.5294
  2.5020  2.1737  1.4892  0.9232  0.9232  1.1651

 Free energy of the ion-electron system (eV)
  ---------------------------------------------------
  alpha Z        PSCENC =         0.02803141
  Ewald energy   TEWEN  =       136.00763986
  -Hartree energ DENC   =      -526.69801690
  -exchange      EXHF   =         0.00000000
  -V(xc)+E(xc)   XCENC  =        34.58828832
  PAW double counting   =       595.12523055     -597.33775831
  entropy T*S    EENTRO =        -0.00000000
  eigenvalues    EBANDS =      -113.01561647
  atomic energy  EATOM  =       457.35501840
  Solvation  Ediel_sol  =         0.00000000
  ---------------------------------------------------
  free energy    TOTEN  =       -13.94718313 eV

  energy without entropy =      -13.94718313  energy(sigma->0) =      -13.94718313


--------------------------------------------------------------------------------------------------------




--------------------------------------- Iteration      2(   8)  ---------------------------------------


    POTLOK:  cpu time     16.1634: real time     16.1636
    SETDIJ:  cpu time      0.0021: real time      0.0021
     EDDAV:  cpu time     10.0640: real time     10.0641
       DOS:  cpu time      0.0001: real time      0.0001
    CHARGE:  cpu time      2.0261: real time      2.0261
    MIXING:  cpu time      0.9416: real time      0.9416
    --------------------------------------------
      LOOP:  cpu time     29.1973: real time     29.1976

 eigenvalue-minimisations  :    24
 total energy-change (2. order) :-0.1296265E-03  (-0.1897522E-05)
 number of electron       7.9999999 magnetization 
 augmentation part        0.7299548 magnetization 

 Broyden mixing:
  rms(total) = 0.58604E-03    rms(broyden)= 0.58604E-03
  rms(prec ) = 0.72709E-03
  weight for this iteration     100.00

 eigenvalues of (default mixing * dielectric matrix)
  average eigenvalue GAMMA=   1.6090
  3.0333  2.3958  1.8398  1.0001  1.0001  0.9970  0.9970

 Free energy of the ion-electron system (eV)
  ---------------------------------------------------
  alpha Z        PSCENC =         0.02803141
  Ewald energy   TEWEN  =       136.00763986
  -Hartree energ DENC   =      -526.68376868
  -exchange      EXHF   =         0.00000000
  -V(xc)+E(xc)   XCENC  =        34.58704031
  PAW double counting   =       595.08792197     -597.29999288
  entropy T*S    EENTRO =        -0.00000000
  eigenvalues    EBANDS =      -113.02920315
  atomic energy  EATOM  =       457.35501840
  Solvation  Ediel_sol  =         0.00000000
  ---------------------------------------------------
  free energy    TOTEN  =       -13.94731276 eV

  energy without entropy =      -13.94731276  energy(sigma->0) =      -13.94731276


--------------------------------------------------------------------------------------------------------




--------------------------------------- Iteration      2(   9)  ---------------------------------------


    POTLOK:  cpu time     16.2306: real time     16.2307
    SETDIJ:  cpu time      0.0021: real time      0.0021
     EDDAV:  cpu time      9.8375: real time      9.8376
       DOS:  cpu time      0.0001: real time      0.0001
    CHARGE:  cpu time      2.0204: real time      2.0204
    MIXING:  cpu time      1.0086: real time      1.0086
    --------------------------------------------
      LOOP:  cpu time     29.0993: real time     29.0995

 eigenvalue-minimisations  :    24
 total energy-change (2. order) :-0.9677017E-04  (-0.1309400E-05)
 number of electron       7.9999999 magnetization 
 augmentation part        0.7298574 magnetization 

 Broyden mixing:
  rms(total) = 0.16910E-03    rms(broyden)= 0.16910E-03
  rms(prec ) = 0.28821E-03
  weight for this iteration     100.00

 eigenvalues of (default mixing * dielectric matrix)
  average eigenvalue GAMMA=   1.8326
  4.3239  2.5281  2.0498  1.8534  0.9827  0.9827  1.0245  0.9155

 Free energy of the ion-electron system (eV)
  ---------------------------------------------------
  alpha Z        PSCENC =         0.02803141
  Ewald energy   TEWEN  =       136.00763986
  -Hartree energ DENC   =      -526.70605165
  -exchange      EXHF   =         0.00000000
  -V(xc)+E(xc)   XCENC  =        34.58792561
  PAW double counting   =       595.11181872     -597.32410462
  entropy T*S    EENTRO =        -0.00000000
  eigenvalues    EBANDS =      -113.00768725
  atomic energy  EATOM  =       457.35501840
  Solvation  Ediel_sol  =         0.00000000
  ---------------------------------------------------
  free energy    TOTEN  =       -13.94740953 eV

  energy without entropy =      -13.94740953  energy(sigma->0) =      -13.94740953


--------------------------------------------------------------------------------------------------------




--------------------------------------- Iteration      2(  10)  ---------------------------------------


    POTLOK:  cpu time     16.6055: real time     16.6055
    SETDIJ:  cpu time      0.0021: real time      0.0021
     EDDAV:  cpu time     10.0478: real time     10.0479
       DOS:  cpu time      0.0001: real time      0.0001
    CHARGE:  cpu time      2.0550: real time      2.0550
    MIXING:  cpu time      1.0607: real time      1.0607
    --------------------------------------------
      LOOP:  cpu time     29.7711: real time     29.7713

 eigenvalue-minimisations  :    24
 total energy-change (2. order) :-0.8202063E-04  (-0.8631496E-06)
 number of electron       7.9999999 magnetization 
 augmentation part        0.7298539 magnetization 

 Broyden mixing:
  rms(total) = 0.12890E-03    rms(broyden)= 0.12890E-03
  rms(prec ) = 0.17028E-03
  weight for this iteration     100.00

 eigenvalues of (default mixing * dielectric matrix)
  average eigenvalue GAMMA=   1.9874
  5.8282  2.7275  2.3743  1.8800  0.9922  0.9922  1.1301  1.0151  0.9466

 Free energy of the ion-electron system (eV)
  ---------------------------------------------------
  alpha Z        PSCENC =         0.02803141
  Ewald energy   TEWEN  =       136.00763986
  -Hartree energ DENC   =      -526.71432158
  -exchange      EXHF   =         0.00000000
  -V(xc)+E(xc)   XCENC  =        34.58808780
  PAW double counting   =       595.08012337     -597.29239653
  entropy T*S    EENTRO =        -0.00000000
  eigenvalues    EBANDS =      -112.99967428
  atomic energy  EATOM  =       457.35501840
  Solvation  Ediel_sol  =         0.00000000
  ---------------------------------------------------
  free energy    TOTEN  =       -13.94749155 eV

  energy without entropy =      -13.94749155  energy(sigma->0) =      -13.94749155


--------------------------------------------------------------------------------------------------------




--------------------------------------- Iteration      2(  11)  ---------------------------------------


    POTLOK:  cpu time     16.5611: real time     16.5613
    SETDIJ:  cpu time      0.0022: real time      0.0022
     EDDAV:  cpu time     12.3309: real time     12.3310
       DOS:  cpu time      0.0001: real time      0.0001
    CHARGE:  cpu time      2.0299: real time      2.0299
    MIXING:  cpu time      1.0992: real time      1.0992
    --------------------------------------------
      LOOP:  cpu time     32.0234: real time     32.0237

[...]
  -Hartree energ DENC   =      -515.75414347
  -exchange      EXHF   =         0.00000000
  -V(xc)+E(xc)   XCENC  =        34.02835553
  PAW double counting   =       544.69499907     -546.77577249
  entropy T*S    EENTRO =        -0.00000000
  eigenvalues    EBANDS =      -109.68307965
  atomic energy  EATOM  =       457.35501840
  Solvation  Ediel_sol  =         0.00000000
  ---------------------------------------------------
  free energy    TOTEN  =       -14.23403043 eV

  energy without entropy =      -14.23403043  energy(sigma->0) =      -14.23403043


--------------------------------------------------------------------------------------------------------




--------------------------------------- Iteration     13(   2)  ---------------------------------------


    POTLOK:  cpu time     16.2903: real time     16.2904
    SETDIJ:  cpu time      0.0021: real time      0.0021
     EDDAV:  cpu time     12.3054: real time     12.3055
       DOS:  cpu time      0.0001: real time      0.0001
    --------------------------------------------
      LOOP:  cpu time     28.5979: real time     28.5981

 eigenvalue-minimisations  :    32
 total energy-change (2. order) :-0.1354903E-07  (-0.6762857E-09)
 number of electron       8.0000000 magnetization 
 augmentation part        0.6904613 magnetization 

 Free energy of the ion-electron system (eV)
  ---------------------------------------------------
  alpha Z        PSCENC =         0.02803141
  Ewald energy   TEWEN  =       121.87256077
  -Hartree energ DENC   =      -515.75462833
  -exchange      EXHF   =         0.00000000
  -V(xc)+E(xc)   XCENC  =        34.02838308
  PAW double counting   =       544.69492115     -546.77569922
  entropy T*S    EENTRO =        -0.00000000
  eigenvalues    EBANDS =      -109.68261769
  atomic energy  EATOM  =       457.35501840
  Solvation  Ediel_sol  =         0.00000000
  ---------------------------------------------------
  free energy    TOTEN  =       -14.23403044 eV

  energy without entropy =      -14.23403044  energy(sigma->0) =      -14.23403044


--------------------------------------------------------------------------------------------------------




 average (electrostatic) potential at core
  the test charge radii are     0.5201  0.7215
  (the norm of the test charge is              1.0000)
       1 -44.7121       2 -44.7121       3 -80.5684
 
 
 
 E-fermi :  -6.2622     XC(G=0):  -0.0795     alpha+bet : -0.0163

 Fermi energy:        -6.2622200624

 k-point     1 :       0.0000    0.0000    0.0000
  band No.  band energies     occupation 
      1     -25.2925      2.00000
      2     -13.0945      2.00000
      3      -9.2588      2.00000
      4      -7.1955      2.00000
      5      -0.9852      0.00000
      6       0.0341      0.00000
      7       0.2397      0.00000
      8       0.3265      0.00000


--------------------------------------------------------------------------------------------------------


 soft charge-density along one line, spin component           1
         0         1         2         3         4         5         6         7         8         9
 total charge-density along one line
 
 pseudopotential strength for first ion, spin component:           1
 -2.384  -4.117  -0.000   0.003  -0.000
 -4.117  -7.023  -0.000   0.009  -0.000
 -0.000  -0.000  -0.324  -0.000   0.000
  0.003   0.009  -0.000  -0.314  -0.000
 -0.000  -0.000   0.000  -0.000  -0.323
 total augmentation occupancy for first ion, spin component:           1
  3.738  -0.783   0.000  -0.720   0.018
 -0.783   0.216   0.000   0.146  -0.009
  0.000   0.000   0.041   0.000   0.000
 -0.720   0.146   0.000   0.139  -0.005
  0.018  -0.009   0.000  -0.005   0.027


------------------------ aborting loop because EDIFF is reached ----------------------------------------


    CHARGE:  cpu time      2.0229: real time      2.0229
    FORLOC:  cpu time      1.4535: real time      1.4535
    FORNL :  cpu time      0.5948: real time      0.5948
    STRESS:  cpu time      6.2174: real time      6.2175
    FORCOR:  cpu time     17.7858: real time     17.7858
    FORHAR:  cpu time      5.0228: real time      5.0229
    MIXING:  cpu time      0.7288: real time      0.7288
    OFIELD:  cpu time      0.0000: real time      0.0000

  FORCE on cell =-STRESS in cart. coord.  units (eV):
  Direction    XX          YY          ZZ          XY          YZ          ZX
  --------------------------------------------------------------------------------------
  Alpha Z     0.02803     0.02803     0.02803
  Ewald      62.99457   -21.81647    80.69449     0.00364     0.00029    25.42782
  Hartree   175.95667   160.81461   178.98366     0.00025    -0.00015     4.34021
  E(xc)     -36.06534   -36.42739   -36.00025    -0.00000     0.00000     0.09370
  Local    -322.46203  -248.18738  -338.21746    -0.00125    -0.00092   -22.61329
  n-local   -30.68575   -30.79206   -30.41919     0.00052    -0.00042     0.38379
  augment     6.41419     8.15660     6.09746    -0.00001     0.00002    -0.45593
  Kinetic   143.81678   168.22329   138.83174    -0.00151     0.00018    -7.17616
  Fock        0.00000     0.00000     0.00000     0.00000     0.00000     0.00000
  -------------------------------------------------------------------------------------
  Total      -0.00288    -0.00076    -0.00153     0.00000     0.00000     0.00015
  in kB      -0.00058    -0.00015    -0.00031     0.00000     0.00000     0.00003
  external pressure =       -0.00 kB  Pullay stress =        0.00 kB


 VOLUME and BASIS-vectors are now :
 -----------------------------------------------------------------------------
  energy-cutoff  :     1400.00
  volume of cell :     8000.00
      direct lattice vectors                 reciprocal lattice vectors
    20.000000000  0.000000000  0.000000000     0.050000000  0.000000000  0.000000000
     0.000000000 20.000000000  0.000000000     0.000000000  0.050000000  0.000000000
     0.000000000  0.000000000 20.000000000     0.000000000  0.000000000  0.050000000

  length of vectors
    20.000000000 20.000000000 20.000000000     0.050000000  0.050000000  0.050000000


 FORCES acting on ions
    electron-ion (+dipol)            ewald-force                    non-local-force                 convergence-correction
 -----------------------------------------------------------------------------------------------
   0.137E+00 -.855E-02 -.880E+02   -.185E+00 -.822E-03 0.963E+02   0.488E-01 -.271E-19 -.832E+01   0.322E-05 -.303E-09 0.103E-04
   0.832E+02 -.455E-02 0.287E+02   -.911E+02 -.388E-02 -.314E+02   0.788E+01 0.000E+00 0.268E+01   -.153E-04 -.112E-08 -.165E-04
   -.513E+02 -.117E+00 0.365E+02   0.912E+02 0.471E-02 -.649E+02   -.400E+02 -.867E-18 0.284E+02   0.581E-04 0.160E-07 -.900E-04
 -----------------------------------------------------------------------------------------------
   0.321E+02 -.130E+00 -.228E+02   -.142E-13 -.520E-17 0.142E-13   -.321E+02 -.894E-18 0.228E+02   0.460E-04 0.146E-07 -.962E-04
 
 
 POSITION                                       TOTAL-FORCE (eV/Angst)
 -----------------------------------------------------------------------------------
      5.09117      0.00007      1.41860         0.000694      0.000000     -0.000504
      4.20047      0.00004      0.16635         0.000972      0.000000     -0.000281
      5.13062      0.00008      0.44766        -0.001666     -0.000000      0.000785
 -----------------------------------------------------------------------------------
    total drift:                                0.000027     -0.130285     -0.000232


--------------------------------------------------------------------------------------------------------



  FREE ENERGIE OF THE ION-ELECTRON SYSTEM (eV)
  ---------------------------------------------------
  free  energy   TOTEN  =       -14.23403044 eV

  energy  without entropy=      -14.23403044  energy(sigma->0) =      -14.23403044
 
 d Force = 0.5837174E-08[ 0.130E-08, 0.104E-07]  d Energy = 0.3891682E-07-0.331E-07
 d Force =-0.1801238E-02[-0.180E-02,-0.180E-02]  d Ewald  =-0.1801238E-02 0.238E-10


--------------------------------------------------------------------------------------------------------


    POTLOK:  cpu time     16.3048: real time     16.3048


--------------------------------------------------------------------------------------------------------




--------------------------------------------------------------------------------------------------------


    WAVPRE:  cpu time      5.6410: real time      5.6411
    FEWALD:  cpu time      0.0001: real time      0.0001
    ORTHCH:  cpu time      0.2440: real time      0.2440
     LOOP+:  cpu time    110.9971: real time    111.0133


--------------------------------------- Ionic step       14  -------------------------------------------




--------------------------------------- Iteration     14(   1)  ---------------------------------------


    POTLOK:  cpu time     16.2969: real time     16.2969
    SETDIJ:  cpu time      0.0022: real time      0.0022
     EDDAV:  cpu time      7.3208: real time      7.3209
       DOS:  cpu time      0.0001: real time      0.0001
    CHARGE:  cpu time      2.0190: real time      2.0191
    MIXING:  cpu time      0.6909: real time      0.6909
    --------------------------------------------
      LOOP:  cpu time     26.3299: real time     26.3301

 eigenvalue-minimisations  :    16
 total energy-change (2. order) :-0.7937086E-07  (-0.9893687E-06)
 number of electron       8.0000000 magnetization 
 augmentation part        0.6904774 magnetization 

 Broyden mixing:
  rms(total) = 0.78936E-04    rms(broyden)= 0.78934E-04
  rms(prec ) = 0.82375E-04
  weight for this iteration     100.00

 Free energy of the ion-electron system (eV)
  ---------------------------------------------------
  alpha Z        PSCENC =         0.02803141
  Ewald energy   TEWEN  =       121.87494592
  -Hartree energ DENC   =      -515.75543015
  -exchange      EXHF   =         0.00000000
  -V(xc)+E(xc)   XCENC  =        34.02840715
  PAW double counting   =       544.69457759     -546.77535704
  entropy T*S    EENTRO =        -0.00000000
  eigenvalues    EBANDS =      -109.68422379
  atomic energy  EATOM  =       457.35501840
  Solvation  Ediel_sol  =         0.00000000
  ---------------------------------------------------
  free energy    TOTEN  =       -14.23403050 eV

  energy without entropy =      -14.23403050  energy(sigma->0) =      -14.23403050


--------------------------------------------------------------------------------------------------------




--------------------------------------- Iteration     14(   2)  ---------------------------------------


    POTLOK:  cpu time     16.2716: real time     16.2722
    SETDIJ:  cpu time      0.0021: real time      0.0021
     EDDAV:  cpu time      9.7770: real time      9.7770
       DOS:  cpu time      0.0001: real time      0.0001
    --------------------------------------------
      LOOP:  cpu time     26.0507: real time     26.0514

 eigenvalue-minimisations  :    24
 total energy-change (2. order) :-0.1277783E-07  (-0.1630014E-07)
 number of electron       8.0000000 magnetization 
 augmentation part        0.6904774 magnetization 

 Free energy of the ion-electron system (eV)
  ---------------------------------------------------
  alpha Z        PSCENC =         0.02803141
  Ewald energy   TEWEN  =       121.87494592
  -Hartree energ DENC   =      -515.75677545
  -exchange      EXHF   =         0.00000000
  -V(xc)+E(xc)   XCENC  =        34.02848573
  PAW double counting   =       544.69910750     -546.77991364
  entropy T*S    EENTRO =        -0.00000000
  eigenvalues    EBANDS =      -109.68293038
  atomic energy  EATOM  =       457.35501840
  Solvation  Ediel_sol  =         0.00000000
  ---------------------------------------------------
  free energy    TOTEN  =       -14.23403052 eV

  energy without entropy =      -14.23403052  energy(sigma->0) =      -14.23403052


--------------------------------------------------------------------------------------------------------




 average (electrostatic) potential at core
  the test charge radii are     0.5201  0.7215
  (the norm of the test charge is              1.0000)
       1 -44.7123       2 -44.7125       3 -80.5683
 
 
 
 E-fermi :  -6.2619     XC(G=0):  -0.0790     alpha+bet : -0.0163

 Fermi energy:        -6.2619305367

 k-point     1 :       0.0000    0.0000    0.0000
  band No.  band energies     occupation 
      1     -25.2926      2.00000
      2     -13.0951      2.00000
      3      -9.2584      2.00000
      4      -7.1955      2.00000
      5      -0.9852      0.00000
      6       0.0347      0.00000
      7       0.2397      0.00000
      8       0.3270      0.00000


--------------------------------------------------------------------------------------------------------


 soft charge-density along one line, spin component           1
         0         1         2         3         4         5         6         7         8         9
 total charge-density along one line
 
 pseudopotential strength for first ion, spin component:           1
 -2.384  -4.117  -0.000   0.003  -0.000
 -4.117  -7.023  -0.000   0.009  -0.000
 -0.000  -0.000  -0.324  -0.000   0.000
  0.003   0.009  -0.000  -0.314  -0.000
 -0.000  -0.000   0.000  -0.000  -0.323
 total augmentation occupancy for first ion, spin component:           1
  3.738  -0.783   0.000  -0.720   0.018
 -0.783   0.216   0.000   0.146  -0.009
  0.000   0.000   0.041   0.000   0.000
 -0.720   0.146   0.000   0.139  -0.005
  0.018  -0.009   0.000  -0.005   0.027


------------------------ aborting loop because EDIFF is reached ----------------------------------------


    CHARGE:  cpu time      2.0185: real time      2.0185
    FORLOC:  cpu time      1.4357: real time      1.4357
    FORNL :  cpu time      0.5884: real time      0.5885
    STRESS:  cpu time      6.2124: real time      6.2125
    FORCOR:  cpu time     17.7898: real time     17.7899
    FORHAR:  cpu time      5.0636: real time      5.0636
    MIXING:  cpu time      0.7560: real time      0.7560
    OFIELD:  cpu time      0.0000: real time      0.0000

  FORCE on cell =-STRESS in cart. coord.  units (eV):
  Direction    XX          YY          ZZ          XY          YZ          ZX
  --------------------------------------------------------------------------------------
  Alpha Z     0.02803     0.02803     0.02803
  Ewald      62.99262   -21.81647    80.69882     0.00364     0.00029    25.43999
  Hartree   175.95636   160.81517   178.98492     0.00025    -0.00015     4.34248
  E(xc)     -36.06547   -36.42750   -36.00034    -0.00000     0.00000     0.09376
  Local    -322.46005  -248.18806  -338.22217    -0.00125    -0.00092   -22.62453
  n-local   -30.68615   -30.79228   -30.41957     0.00052    -0.00042     0.38358
  augment     6.41430     8.15664     6.09748    -0.00001     0.00002    -0.45611
  Kinetic   143.81820   168.22344   138.83104    -0.00151     0.00018    -7.17934
  Fock        0.00000     0.00000     0.00000     0.00000     0.00000     0.00000
  -------------------------------------------------------------------------------------
  Total      -0.00217    -0.00102    -0.00178     0.00000     0.00000    -0.00016
  in kB      -0.00043    -0.00021    -0.00036     0.00000     0.00000    -0.00003
  external pressure =       -0.00 kB  Pullay stress =        0.00 kB


 VOLUME and BASIS-vectors are now :
 -----------------------------------------------------------------------------
  energy-cutoff  :     1400.00
  volume of cell :     8000.00
      direct lattice vectors                 reciprocal lattice vectors
    20.000000000  0.000000000  0.000000000     0.050000000  0.000000000  0.000000000
     0.000000000 20.000000000  0.000000000     0.000000000  0.050000000  0.000000000
     0.000000000  0.000000000 20.000000000     0.000000000  0.000000000  0.050000000

  length of vectors
    20.000000000 20.000000000 20.000000000     0.050000000  0.050000000  0.050000000


 FORCES acting on ions
    electron-ion (+dipol)            ewald-force                    non-local-force                 convergence-correction
 -----------------------------------------------------------------------------------------------
   0.130E+00 -.855E-02 -.880E+02   -.178E+00 -.822E-03 0.963E+02   0.480E-01 -.678E-20 -.832E+01   0.104E-03 0.304E-07 -.742E-04
   0.832E+02 -.455E-02 0.288E+02   -.911E+02 -.388E-02 -.314E+02   0.788E+01 -.271E-19 0.269E+01   0.795E-04 0.526E-07 -.584E-04
   -.513E+02 -.117E+00 0.365E+02   0.912E+02 0.471E-02 -.649E+02   -.400E+02 0.000E+00 0.284E+02   0.174E-02 -.199E-06 -.543E-03
 -----------------------------------------------------------------------------------------------
   0.320E+02 -.130E+00 -.228E+02   0.000E+00 -.607E-17 0.142E-13   -.320E+02 -.339E-19 0.228E+02   0.192E-02 -.117E-06 -.676E-03
 
 
 POSITION                                       TOTAL-FORCE (eV/Angst)
 -----------------------------------------------------------------------------------
      5.09121      0.00007      1.41862         0.000141     -0.000000     -0.000416
      4.20047      0.00004      0.16631        -0.000035     -0.000000      0.000003
      5.13058      0.00008      0.44768        -0.000106      0.000000      0.000413
 -----------------------------------------------------------------------------------
    total drift:                               -0.000101     -0.130285     -0.000171


--------------------------------------------------------------------------------------------------------



  FREE ENERGIE OF THE ION-ELECTRON SYSTEM (eV)
  ---------------------------------------------------
  free  energy   TOTEN  =       -14.23403052 eV

  energy  without entropy=      -14.23403052  energy(sigma->0) =      -14.23403052
 
 d Force = 0.6028606E-07[ 0.109E-07, 0.110E-06]  d Energy = 0.7859967E-07-0.183E-07
 d Force =-0.2385150E-02[-0.238E-02,-0.239E-02]  d Ewald  =-0.2385150E-02 0.344E-11


--------------------------------------------------------------------------------------------------------


    POTLOK:  cpu time     16.2565: real time     16.2570


--------------------------------------------------------------------------------------------------------


 Conjugate gradient step on ions:
 trial-energy change:   -0.000000  1 .order   -0.000000   -0.000000   -0.000000
  (g-gl).g = 0.257E-06      g.g   = 0.249E-06  gl.gl    = 0.277E-06
 g(Force)  = 0.249E-06   g(Stress)= 0.000E+00 ortho     =-0.837E-08
 gamma     =   0.92663
 trial     =   0.45550
 opt step  =   0.50568  (harmonic =   0.50568) maximal distance =0.00004199
 next E    =   -14.234030   (d E  =  -0.00000)


--------------------------------------------------------------------------------------------------------


  
 reached required accuracy - stopping structural energy minimisation
 writing wavefunctions
     LOOP+:  cpu time    102.7186: real time    102.7202
    4ORBIT:  cpu time      0.0000: real time      0.0000

 total amount of memory used by VASP MPI-rank0  5721495. kBytes
=======================================================================

   base      :      30000. kBytes
   nonl-proj :     167483. kBytes
   fftplans  :    1935800. kBytes
   grid      :    3466395. kBytes
   one-center:          9. kBytes
   wavefun   :     121808. kBytes
 
  
  
 General timing and accounting informations for this job:
 ========================================================
  
                  Total CPU time used (sec):     3671.787
                            User time (sec):     3458.939
                          System time (sec):      212.848
                         Elapsed time (sec):     3672.294
  
                   Maximum memory used (kb):     8917856.
                   Average memory used (kb):          N/A
  
                          Minor page faults:    207806486
                          Major page faults:            0
                 Voluntary context switches:          582
