 vasp.6.4.1 05Apr23 (build Jun 06 2023 10:26:43) complex                        
  
 executed on             LinuxIFC date 2023.06.30  15:37:22
 running    1 mpi-ranks, on    1 nodes
 distrk:  each k-point on    1 cores,    1 groups
 distr:  one band on NCORE=   1 cores,    1 groups


--------------------------------------------------------------------------------------------------------


 INCAR:
   SYSTEM = BN
   GGA = PE
   ISMEAR = 0
   EDIFF = 1.0E-6
   EDIFFG = -1.0E-3
   KPAR = 1
   NCSHMEM = -1
   PREC = Normal
   NCORE = 4
   IBRION = 2
   POTIM = 0.5
   NSW = 101
   ENCUT = 1500

 POTCAR:    PAW_PBE H 15Jun2001                   
 POTCAR:    PAW_PBE O 08Apr2002                   
 -----------------------------------------------------------------------------
|                                                                             |
|           W    W    AA    RRRRR   N    N  II  N    N   GGGG   !!!           |
|           W    W   A  A   R    R  NN   N  II  NN   N  G    G  !!!           |
|           W    W  A    A  R    R  N N  N  II  N N  N  G       !!!           |
|           W WW W  AAAAAA  RRRRR   N  N N  II  N  N N  G  GGG   !            |
|           WW  WW  A    A  R   R   N   NN  II  N   NN  G    G                |
|           W    W  A    A  R    R  N    N  II  N    N   GGGG   !!!           |
|                                                                             |
|     The value NCORE = 4 specified in the INCAR file was overwritten,        |
|     because it was not compatible with the 1 processes available:           |
|     NCORE = 1                                                               |
|     was used instead, please check that this makes sense for your           |
|     machine.                                                                |
|                                                                             |
 -----------------------------------------------------------------------------

 POTCAR:    PAW_PBE H 15Jun2001                   
   VRHFIN =H: ultrasoft test                                                                        
   LEXCH  = PE                                                                                      
   EATOM  =    12.4884 eV,    0.9179 Ry                                                             
                                                                                                    
   TITEL  = PAW_PBE H 15Jun2001                                                                     
   LULTRA =        F    use ultrasoft PP ?                                                          
   IUNSCR =        0    unscreen: 0-lin 1-nonlin 2-no                                               
   RPACOR =    0.000    partial core radius                                                         
   POMASS =    1.000; ZVAL   =    1.000    mass and valenz                                          
   RCORE  =    1.100    outmost cutoff radius                                                       
   RWIGS  =    0.700; RWIGS  =    0.370    wigner-seitz radius (au A)                               
   ENMAX  =  250.000; ENMIN  =  200.000 eV                                                          
   RCLOC  =    0.701    cutoff for local pot                                                        
   LCOR   =        T    correct aug charges                                                         
   LPAW   =        T    paw PP                                                                      
   EAUG   =  400.000                                                                                
   RMAX   =    1.123    core radius for proj-oper                                                   
   RAUG   =    1.200    factor for augmentation sphere                                              
   RDEP   =    1.112    radius for radial grids                                                     
   RDEPT  =    0.926    core radius for aug-charge                                                  
                                                                                                    
   Atomic configuration                                                                             
    2 entries                                                                                       
     n  l   j            E        occ.                                                              
     1  0  0.50        -6.4927   1.0000                                                             
     2  1  0.50        -3.4015   0.0000                                                             
   Description                                                                                      
     l       E           TYP  RCUT    TYP  RCUT                                                     
     0     -6.4927494     23  1.100                                                                 
     0      6.8029130     23  1.100                                                                 
     1     -4.0817478     23  1.100                                                                 
  local pseudopotential read in
  atomic valenz-charges read in
  non local Contribution for L=           0  read in
    real space projection operators read in
  non local Contribution for L=           0  read in
    real space projection operators read in
  non local Contribution for L=           1  read in
    real space projection operators read in
    PAW grid and wavefunctions read in
 
   number of l-projection  operators is LMAX  =           3
   number of lm-projection operators is LMMAX =           5
 
 POTCAR:    PAW_PBE O 08Apr2002                   
   VRHFIN =O: s2p4                                                                                  
   LEXCH  = PE                                                                                      
   EATOM  =   432.3788 eV,   31.7789 Ry                                                             
                                                                                                    
   TITEL  = PAW_PBE O 08Apr2002                                                                     
   LULTRA =        F    use ultrasoft PP ?                                                          
   IUNSCR =        1    unscreen: 0-lin 1-nonlin 2-no                                               
   RPACOR =    1.200    partial core radius                                                         
   POMASS =   16.000; ZVAL   =    6.000    mass and valenz                                          
   RCORE  =    1.520    outmost cutoff radius                                                       
   RWIGS  =    1.550; RWIGS  =    0.820    wigner-seitz radius (au A)                               
   ENMAX  =  400.000; ENMIN  =  300.000 eV                                                          
   ICORE  =        2    local potential                                                             
   LCOR   =        T    correct aug charges                                                         
   LPAW   =        T    paw PP                                                                      
   EAUG   =  605.392                                                                                
   DEXC   =    0.000                                                                                
   RMAX   =    1.553    core radius for proj-oper                                                   
   RAUG   =    1.300    factor for augmentation sphere                                              
   RDEP   =    1.550    radius for radial grids                                                     
   RDEPT  =    1.329    core radius for aug-charge                                                  
                                                                                                    
   Atomic configuration                                                                             
    4 entries                                                                                       
     n  l   j            E        occ.                                                              
     1  0  0.50      -514.6923   2.0000                                                             
     2  0  0.50       -23.9615   2.0000                                                             
     2  1  0.50        -9.0305   4.0000                                                             
     3  2  1.50        -9.5241   0.0000                                                             
   Description                                                                                      
     l       E           TYP  RCUT    TYP  RCUT                                                     
     0    -23.9615318     23  1.200                                                                 
     0     -9.5240782     23  1.200                                                                 
     1     -9.0304911     23  1.520                                                                 
     1      8.1634956     23  1.520                                                                 
     2     -9.5240782      7  1.500                                                                 
  local pseudopotential read in
  partial core-charges read in
  partial kinetic energy density read in
  kinetic energy density of atom read in
  atomic valenz-charges read in
  non local Contribution for L=           0  read in
    real space projection operators read in
  non local Contribution for L=           0  read in
    real space projection operators read in
  non local Contribution for L=           1  read in
    real space projection operators read in
  non local Contribution for L=           1  read in
    real space projection operators read in
    PAW grid and wavefunctions read in
 
   number of l-projection  operators is LMAX  =           4
   number of lm-projection operators is LMMAX =           8
 
  PAW_PBE H 15Jun2001                   :
 energy of atom  1       EATOM=  -12.4884
 kinetic energy error for atom=    0.0000 (will be added to EATOM!!)
  PAW_PBE O 08Apr2002                   :
 energy of atom  2       EATOM= -432.3788
 kinetic energy error for atom=    0.0005 (will be added to EATOM!!)
 
 
 POSCAR: Water molecule
  positions in cartesian coordinates
  No initial velocities read in
 exchange correlation table for  LEXCH =        8
   RHO(1)=    0.500       N(1)  =     2000
   RHO(2)=  100.500       N(2)  =     4000
 


--------------------------------------------------------------------------------------------------------


 ion  position               nearest neighbor table
   1  0.255  0.000  0.072-   3 1.00
   2  0.209  0.000  0.007-   3 1.00
   3  0.257  0.000  0.022-   1 1.00   2 1.00
 
  LATTYP: Found a simple cubic cell.
 ALAT       =    20.0000000000
  
  Lattice vectors:
  
 A1 = (  20.0000000000,   0.0000000000,   0.0000000000)
 A2 = (   0.0000000000,  20.0000000000,   0.0000000000)
 A3 = (   0.0000000000,   0.0000000000,  20.0000000000)


Analysis of symmetry for initial positions (statically):
=====================================================================
 Subroutine PRICEL returns:
 Original cell was already a primitive cell.
 

 Routine SETGRP: Setting up the symmetry group for a 
 simple cubic supercell.


 Subroutine GETGRP returns: Found  2 space group operations
 (whereof  2 operations were pure point group operations)
 out of a pool of 48 trial point group operations.


The static configuration has the point symmetry C_1h.


Analysis of symmetry for dynamics (positions and initial velocities):
=====================================================================
 Subroutine PRICEL returns:
 Original cell was already a primitive cell.
 

 Routine SETGRP: Setting up the symmetry group for a 
 simple cubic supercell.


 Subroutine GETGRP returns: Found  2 space group operations
 (whereof  2 operations were pure point group operations)
 out of a pool of 48 trial point group operations.


The dynamic configuration has the point symmetry C_1h.


 Subroutine INISYM returns: Found  2 space group operations
 (whereof  2 operations are pure point group operations),
 and found     1 'primitive' translations


----------------------------------------------------------------------------------------

                                     Primitive cell                                     

  volume of cell :    8000.0000

  direct lattice vectors                    reciprocal lattice vectors
    20.000000000  0.000000000  0.000000000     0.050000000  0.000000000  0.000000000
     0.000000000 20.000000000  0.000000000     0.000000000  0.050000000  0.000000000
     0.000000000  0.000000000 20.000000000     0.000000000  0.000000000  0.050000000

  length of vectors
    20.000000000 20.000000000 20.000000000     0.050000000  0.050000000  0.050000000

  position of ions in fractional coordinates (direct lattice)
     0.255395500  0.000003500  0.072266000
     0.209022500  0.000002000  0.007084000
     0.256695000  0.000004000  0.022280500

  ion indices of the primitive-cell ions
   primitive index   ion index
                 1           1
                 2           2
                 3           3

----------------------------------------------------------------------------------------

 
 
 KPOINTS: Automatically generated mesh            

Automatic generation of k-mesh.
 Grid dimensions read from file:
 generate k-points for:    1    1    1

 Generating k-lattice:

  Cartesian coordinates                     Fractional coordinates (reciprocal lattice)
     0.050000000  0.000000000  0.000000000     1.000000000  0.000000000  0.000000000
     0.000000000  0.050000000  0.000000000     0.000000000  1.000000000  0.000000000
     0.000000000  0.000000000  0.050000000     0.000000000  0.000000000  1.000000000

  Length of vectors
     0.050000000  0.050000000  0.050000000

  Shift w.r.t. Gamma in fractional coordinates (k-lattice)
     0.000000000  0.000000000  0.000000000

 
 Subroutine IBZKPT returns following result:
 ===========================================
 
 Found      1 irreducible k-points:
 
 Following reciprocal coordinates:
            Coordinates               Weight
  0.000000  0.000000  0.000000      1.000000
 
 Following cartesian coordinates:
            Coordinates               Weight
  0.000000  0.000000  0.000000      1.000000
 


--------------------------------------------------------------------------------------------------------




 Dimension of arrays:
   k-points           NKPTS =      1   k-points in BZ     NKDIM =      1   number of bands    NBANDS=      8
   number of dos      NEDOS =    301   number of ions     NIONS =      3
   non local maximal  LDIM  =      4   non local SUM 2l+1 LMDIM =      8
   total plane-waves  NPLWV = ******
   max r-space proj   IRMAX =      1   max aug-charges    IRDMAX=  11677
   dimension x,y,z NGX =   192 NGY =  192 NGZ =  192
   dimension x,y,z NGXF=   384 NGYF=  384 NGZF=  384
   support grid    NGXF=   384 NGYF=  384 NGZF=  384
   ions per type =               2   1
   NGX,Y,Z   is equivalent  to a cutoff of  15.96, 15.96, 15.96 a.u.
   NGXF,Y,Z  is equivalent  to a cutoff of  31.92, 31.92, 31.92 a.u.

 SYSTEM =  BN                                      
 POSCAR =  Water molecule                          

 Startparameter for this run:
   NWRITE =      2    write-flag & timer
   PREC   = normal    normal or accurate (medium, high low for compatibility)
   ISTART =      1    job   : 0-new  1-cont  2-samecut
   ICHARG =      0    charge: 1-file 2-atom 10-const
   ISPIN  =      1    spin polarized calculation?
   LNONCOLLINEAR =      F non collinear calculations
   LSORBIT =      F    spin-orbit coupling
   INIWAV =      1    electr: 0-lowe 1-rand  2-diag
   LASPH  =      F    aspherical Exc in radial PAW
 Electronic Relaxation 1
   ENCUT  = 1500.0 eV 110.25 Ry   10.50 a.u.  63.16 63.16 63.16*2*pi/ulx,y,z
   ENINI  = 1500.0     initial cutoff
   ENAUG  =  605.4 eV  augmentation charge cutoff
   NELM   =     60;   NELMIN=  2; NELMDL=  0     # of ELM steps 
   EDIFF  = 0.1E-05   stopping-criterion for ELM
   LREAL  =      F    real-space projection
   NLSPLINE    = F    spline interpolate recip. space projectors
   LCOMPAT=      F    compatible to vasp.4.4
   GGA_COMPAT  = T    GGA compatible to vasp.4.4-vasp.4.6
   LMAXPAW     = -100 max onsite density
   LMAXMIX     =    2 max onsite mixed and CHGCAR
   VOSKOWN=      0    Vosko Wilk Nusair interpolation
   ROPT   =    0.00000   0.00000
 Ionic relaxation
   EDIFFG = -.1E-02   stopping-criterion for IOM
   NSW    =    101    number of steps for IOM
   NBLOCK =      1;   KBLOCK =    101    inner block; outer block 
   IBRION =      2    ionic relax: 0-MD 1-quasi-New 2-CG
   NFREE  =      1    steps in history (QN), initial steepest desc. (CG)
   ISIF   =      2    stress and relaxation
   IWAVPR =     11    prediction:  0-non 1-charg 2-wave 3-comb
   ISYM   =      2    0-nonsym 1-usesym 2-fastsym
   LCORR  =      T    Harris-Foulkes like correction to forces

   POTIM  = 0.5000    time-step for ionic-motion
   TEIN   =    0.0    initial temperature
   TEBEG  =    0.0;   TEEND  =   0.0 temperature during run
   SMASS  =  -3.00    Nose mass-parameter (am)
   estimated Nose-frequenzy (Omega)   =  0.10E-29 period in steps = 0.13E+47 mass=  -0.914E-26a.u.
   SCALEE = 1.0000    scale energy and forces
   NPACO  =    256;   APACO  = 10.0  distance and # of slots for P.C.
   PSTRESS=    0.0 pullay stress

  Mass of Ions in am
   POMASS =   1.00 16.00
  Ionic Valenz
   ZVAL   =   1.00  6.00
  Atomic Wigner-Seitz radii
   RWIGS  =  -1.00 -1.00
  virtual crystal weights 
   VCA    =   1.00  1.00
   NELECT =       8.0000    total number of electrons
   NUPDOWN=      -1.0000    fix difference up-down

 DOS related values:
   EMIN   =  10.00;   EMAX   =-10.00  energy-range for DOS
   EFERMI =   0.00;   METHOD = LEGACY      
   ISMEAR =     0;   SIGMA  =   0.20  broadening in eV -4-tet -1-fermi 0-gaus

 Electronic relaxation 2 (details)
   IALGO  =     38    algorithm
   LDIAG  =      T    sub-space diagonalisation (order eigenvalues)
   LSUBROT=      F    optimize rotation matrix (better conditioning)
   TURBO    =      0    0=normal 1=particle mesh
   IRESTART =      0    0=no restart 2=restart with 2 vectors
   NREBOOT  =      0    no. of reboots
   NMIN     =      0    reboot dimension
   EREF     =   0.00    reference energy to select bands
   IMIX   =      4    mixing-type and parameters
     AMIX     =   0.40;   BMIX     =  1.00
     AMIX_MAG =   1.60;   BMIX_MAG =  1.00
     AMIN     =   0.10
     WC   =   100.;   INIMIX=   1;  MIXPRE=   1;  MAXMIX= -45

 Intra band minimization:
   WEIMIN = 0.0010     energy-eigenvalue tresh-hold
   EBREAK =  0.31E-07  absolut break condition
   DEPER  =   0.30     relativ break condition  

   TIME   =   0.40     timestep for ELM

  volume/ion in A,a.u.               =    2666.67     17995.55
  Fermi-wavevector in a.u.,A,eV,Ry     =   0.163710  0.309367  0.364649  0.026801
  Thomas-Fermi vector in A             =   0.862763
 
 Write flags
   LWAVE        =      T    write WAVECAR
   LDOWNSAMPLE  =      F    k-point downsampling of WAVECAR
   LCHARG       =      T    write CHGCAR
   LVTOT        =      F    write LOCPOT, total local potential
   LVHAR        =      F    write LOCPOT, Hartree potential only
   LELF         =      F    write electronic localiz. function (ELF)
   LORBIT       =      0    0 simple, 1 ext, 2 COOP (PROOUT), +10 PAW based schemes


 Dipole corrections
   LMONO  =      F    monopole corrections only (constant potential shift)
   LDIPOL =      F    correct potential (dipole corrections)
   IDIPOL =      0    1-x, 2-y, 3-z, 4-all directions 
   EPSILON=  1.0000000 bulk dielectric constant

 Exchange correlation treatment:
   GGA     =    PE    GGA type
   LEXCH   =     8    internal setting for exchange type
   LIBXC   =     F    Libxc                    
   VOSKOWN =     0    Vosko Wilk Nusair interpolation
   LHFCALC =     F    Hartree Fock is set to
   LHFONE  =     F    Hartree Fock one center treatment
   AEXX    =    0.0000 exact exchange contribution

 Linear response parameters
   LEPSILON=     F    determine dielectric tensor
   LRPA    =     F    only Hartree local field effects (RPA)
   LNABLA  =     F    use nabla operator in PAW spheres
   LVEL    =     F    velocity operator in full k-point grid
   CSHIFT  =0.1000    complex shift for real part using Kramers Kronig
   OMEGAMAX=  -1.0    maximum frequency
   DEG_THRESHOLD= 0.2000000E-02 threshold for treating states as degnerate
   RTIME   =   -0.100 relaxation time in fs
  (WPLASMAI=    0.000 imaginary part of plasma frequency in eV, 0.658/RTIME)
   DFIELD  = 0.0000000 0.0000000 0.0000000 field for delta impulse in time
 
  Optional k-point grid parameters
   LKPOINTS_OPT  =     F    use optional k-point grid
   KPOINTS_OPT_MODE=     1    mode for optional k-point grid
 
 Orbital magnetization related:
   ORBITALMAG=     F  switch on orbital magnetization
   LCHIMAG   =     F  perturbation theory with respect to B field
   DQ        =  0.001000  dq finite difference perturbation B field
   LLRAUG    =     F  two centre corrections for induced B field
   LBONE     =     F  B-component reconstruction in AE one-centre
   LVGVCALC  =     T  calculate vGv susceptibility
   LVGVAPPL  =     F  apply vGv susceptibility instead of pGv for G=0

 Random number generation:
   RANDOM_GENERATOR = DEFAULT
   PCG_SEED         = not used


--------------------------------------------------------------------------------------------------------


 conjugate gradient relaxation of ions
 charge density and potential will be updated during run
 non-spin polarized calculation
 Variant of blocked Davidson
 Davidson routine will perform the subspace rotation
 perform sub-space diagonalisation
    after iterative eigenvector-optimisation
 modified Broyden-mixing scheme, WC =      100.0
 initial mixing is a Kerker type mixing with AMIX =  0.4000 and BMIX =      1.0000
 Hartree-type preconditioning will be used
 using additional bands            4
 reciprocal scheme for non local part
 use partial core corrections
 calculate Harris-corrections to forces 
   (improved forces if not selfconsistent)
 use gradient corrections 
 use of overlap-Matrix (Vanderbilt PP)
 Gauss-broadening in eV      SIGMA  =   0.20


--------------------------------------------------------------------------------------------------------


  energy-cutoff  :     1500.00
  volume of cell :     8000.00
      direct lattice vectors                 reciprocal lattice vectors
    20.000000000  0.000000000  0.000000000     0.050000000  0.000000000  0.000000000
     0.000000000 20.000000000  0.000000000     0.000000000  0.050000000  0.000000000
     0.000000000  0.000000000 20.000000000     0.000000000  0.000000000  0.050000000

  length of vectors
    20.000000000 20.000000000 20.000000000     0.050000000  0.050000000  0.050000000


 
 old parameters found on file WAVECAR:
  energy-cutoff  :     1400.00
  volume of cell :     8000.00
      direct lattice vectors                 reciprocal lattice vectors
    20.000000000  0.000000000  0.000000000     0.050000000  0.000000000  0.000000000
     0.000000000 20.000000000  0.000000000     0.000000000  0.050000000  0.000000000
     0.000000000  0.000000000 20.000000000     0.000000000  0.000000000  0.050000000

  length of vectors

 
 k-points in units of 2pi/SCALE and weight: Automatically generated mesh            
   0.00000000  0.00000000  0.00000000       1.000
 
 k-points in reciprocal lattice and weights: Automatically generated mesh            
   0.00000000  0.00000000  0.00000000       1.000
 
 position of ions in fractional coordinates (direct lattice) 
   0.25539550  0.00000350  0.07226600
   0.20902250  0.00000200  0.00708400
   0.25669500  0.00000400  0.02228050
 
 position of ions in cartesian coordinates  (Angst):
   5.10791000  0.00007000  1.44532000
   4.18045000  0.00004000  0.14168000
   5.13390000  0.00008000  0.44561000
 


--------------------------------------------------------------------------------------------------------


 k-point   1 :   0.0000 0.0000 0.0000  plane waves: 1056139

 maximum and minimum number of plane-waves per node :   1056139  1056139

 maximum number of plane-waves:   1056139
 maximum index in each direction: 
   IXMAX=   63   IYMAX=   63   IZMAX=   63
   IXMIN=  -63   IYMIN=  -63   IZMIN=  -63


 serial   3D FFT for wavefunctions
 parallel 3D FFT for charge:
    minimum data exchange during FFTs selected (reduces bandwidth)


 total amount of memory used by VASP MPI-rank0  5753272. kBytes
=======================================================================

   base      :      30000. kBytes
   nonl-proj :     185880. kBytes
   fftplans  :    1935800. kBytes
   grid      :    3466395. kBytes
   one-center:          9. kBytes
   wavefun   :     135188. kBytes
 
     INWAV:  cpu time      0.2628: real time      0.2630
 Broyden mixing: mesh for mixing (old mesh)
   NGX =127   NGY =127   NGZ =127
  (NGX  =384   NGY  =384   NGZ  =384)
  gives a total of ****** points

 charge density for first step will be calculated from the start-wavefunctions


--------------------------------------------------------------------------------------------------------


 Maximum index for augmentation-charges        11133 (set IRDMAX)


--------------------------------------------------------------------------------------------------------


 initial charge from wavefunction
 First call to EWALD:  gamma=   0.089
 Maximum number of real-space cells 3x 3x 3
 Maximum number of reciprocal cells 3x 3x 3

    FEWALD:  cpu time      0.0008: real time      0.0008


--------------------------------------- Ionic step        1  -------------------------------------------




--------------------------------------- Iteration      1(   1)  ---------------------------------------


    POTLOK:  cpu time     17.6122: real time     17.6122
    SETDIJ:  cpu time      0.0021: real time      0.0021
     EDDAV:  cpu time      7.9458: real time      7.9458
       DOS:  cpu time      0.0001: real time      0.0001
    CHARGE:  cpu time      2.0761: real time      2.0761
    MIXING:  cpu time      0.6921: real time      0.6921
    --------------------------------------------
      LOOP:  cpu time     28.3284: real time     28.3284

 eigenvalue-minimisations  :    16
 total energy-change (2. order) :-0.1423175E+02  (-0.1517495E+00)
 number of electron       8.0000000 magnetization 
 augmentation part        0.6683793 magnetization 

 Broyden mixing:
  rms(total) = 0.11414E+00    rms(broyden)= 0.11414E+00
  rms(prec ) = 0.12346E+00
  weight for this iteration     100.00

 Free energy of the ion-electron system (eV)
  ---------------------------------------------------
  alpha Z        PSCENC =         0.02803141
  Ewald energy   TEWEN  =       116.41630449
  -Hartree energ DENC   =      -515.54581028
  -exchange      EXHF   =         0.00000000
  -V(xc)+E(xc)   XCENC  =        34.01792529
  PAW double counting   =       540.53502997     -542.59515255
  entropy T*S    EENTRO =        -0.00000000
  eigenvalues    EBANDS =      -104.44311994
  atomic energy  EATOM  =       457.35504338
  Solvation  Ediel_sol  =         0.00000000
  ---------------------------------------------------
  free energy    TOTEN  =       -14.23174824 eV

  energy without entropy =      -14.23174824  energy(sigma->0) =      -14.23174824


--------------------------------------------------------------------------------------------------------




--------------------------------------- Iteration      1(   2)  ---------------------------------------


    POTLOK:  cpu time     16.5748: real time     16.5748
    SETDIJ:  cpu time      0.0021: real time      0.0021
     EDDAV:  cpu time     10.2703: real time     10.2703
       DOS:  cpu time      0.0001: real time      0.0001
    CHARGE:  cpu time      2.0544: real time      2.0544
    MIXING:  cpu time      0.7423: real time      0.7423
    --------------------------------------------
      LOOP:  cpu time     29.6440: real time     29.6440

 eigenvalue-minimisations  :    24
 total energy-change (2. order) : 0.3392658E-01  (-0.1117553E-01)
 number of electron       8.0000000 magnetization 
 augmentation part        0.6775578 magnetization 

 Broyden mixing:
  rms(total) = 0.47229E-01    rms(broyden)= 0.47229E-01
  rms(prec ) = 0.50537E-01
  weight for this iteration     100.00

 eigenvalues of (default mixing * dielectric matrix)
  average eigenvalue GAMMA=   1.3020
  1.3020

 Free energy of the ion-electron system (eV)
  ---------------------------------------------------
  alpha Z        PSCENC =         0.02803141
  Ewald energy   TEWEN  =       116.41630449
  -Hartree energ DENC   =      -512.73679650
  -exchange      EXHF   =         0.00000000
  -V(xc)+E(xc)   XCENC  =        33.86709661
  PAW double counting   =       532.76643778     -534.80930488
  entropy T*S    EENTRO =        -0.00000000
  eigenvalues    EBANDS =      -107.08463395
  atomic energy  EATOM  =       457.35504338
  Solvation  Ediel_sol  =         0.00000000
  ---------------------------------------------------
  free energy    TOTEN  =       -14.19782166 eV

  energy without entropy =      -14.19782166  energy(sigma->0) =      -14.19782166


--------------------------------------------------------------------------------------------------------




--------------------------------------- Iteration      1(   3)  ---------------------------------------


    POTLOK:  cpu time     16.4016: real time     16.4016
    SETDIJ:  cpu time      0.0021: real time      0.0021
     EDDAV:  cpu time     10.2749: real time     10.2750
       DOS:  cpu time      0.0001: real time      0.0001
    CHARGE:  cpu time      2.0578: real time      2.0578
    MIXING:  cpu time      0.7713: real time      0.7713
    --------------------------------------------
      LOOP:  cpu time     29.5078: real time     29.5078

 eigenvalue-minimisations  :    24
 total energy-change (2. order) : 0.5611768E-02  (-0.1362719E-02)
 number of electron       8.0000000 magnetization 
 augmentation part        0.6798699 magnetization 

 Broyden mixing:
  rms(total) = 0.20125E-01    rms(broyden)= 0.20125E-01
  rms(prec ) = 0.21265E-01
  weight for this iteration     100.00

 eigenvalues of (default mixing * dielectric matrix)
  average eigenvalue GAMMA=   1.5679
  1.2898  1.8460

 Free energy of the ion-electron system (eV)
  ---------------------------------------------------
  alpha Z        PSCENC =         0.02803141
  Ewald energy   TEWEN  =       116.41630449
  -Hartree energ DENC   =      -511.89951829
  -exchange      EXHF   =         0.00000000
  -V(xc)+E(xc)   XCENC  =        33.82669706
  PAW double counting   =       529.22485642     -531.27105374
  entropy T*S    EENTRO =        -0.00000000
  eigenvalues    EBANDS =      -107.87257061
  atomic energy  EATOM  =       457.35504338
  Solvation  Ediel_sol  =         0.00000000
  ---------------------------------------------------
  free energy    TOTEN  =       -14.19220989 eV

  energy without entropy =      -14.19220989  energy(sigma->0) =      -14.19220989


--------------------------------------------------------------------------------------------------------




--------------------------------------- Iteration      1(   4)  ---------------------------------------


    POTLOK:  cpu time     16.2378: real time     16.2378
    SETDIJ:  cpu time      0.0021: real time      0.0021
     EDDAV:  cpu time     10.3121: real time     10.3163
       DOS:  cpu time      0.0001: real time      0.0001
    CHARGE:  cpu time      2.0680: real time      2.0680
    MIXING:  cpu time      0.8052: real time      0.8052
    --------------------------------------------
      LOOP:  cpu time     29.4253: real time     29.4296

 eigenvalue-minimisations  :    24
 total energy-change (2. order) : 0.5535496E-03  (-0.3818185E-03)
 number of electron       8.0000000 magnetization 
 augmentation part        0.6780313 magnetization 

 Broyden mixing:
  rms(total) = 0.55093E-02    rms(broyden)= 0.55093E-02
  rms(prec ) = 0.61079E-02
  weight for this iteration     100.00

 eigenvalues of (default mixing * dielectric matrix)
  average eigenvalue GAMMA=   1.4656
  2.1552  1.1207  1.1207

 Free energy of the ion-electron system (eV)
  ---------------------------------------------------
  alpha Z        PSCENC =         0.02803141
  Ewald energy   TEWEN  =       116.41630449
  -Hartree energ DENC   =      -511.83782985
  -exchange      EXHF   =         0.00000000
  -V(xc)+E(xc)   XCENC  =        33.82749850
  PAW double counting   =       527.97949643     -530.03340454
  entropy T*S    EENTRO =        -0.00000000
  eigenvalues    EBANDS =      -107.92679616
  atomic energy  EATOM  =       457.35504338
  Solvation  Ediel_sol  =         0.00000000
  ---------------------------------------------------
  free energy    TOTEN  =       -14.19165634 eV

  energy without entropy =      -14.19165634  energy(sigma->0) =      -14.19165634


--------------------------------------------------------------------------------------------------------




--------------------------------------- Iteration      1(   5)  ---------------------------------------


    POTLOK:  cpu time     16.2567: real time     16.2568
    SETDIJ:  cpu time      0.0021: real time      0.0021
     EDDAV:  cpu time     12.9567: real time     12.9568
       DOS:  cpu time      0.0001: real time      0.0001
    CHARGE:  cpu time      2.0703: real time      2.0704
    MIXING:  cpu time      0.8385: real time      0.8386
    --------------------------------------------
      LOOP:  cpu time     32.1244: real time     32.1248

 eigenvalue-minimisations  :    32
 total energy-change (2. order) :-0.2658797E-04  (-0.7892992E-04)
 number of electron       8.0000000 magnetization 
 augmentation part        0.6793130 magnetization 

 Broyden mixing:
  rms(total) = 0.34109E-02    rms(broyden)= 0.34109E-02
  rms(prec ) = 0.36772E-02
  weight for this iteration     100.00

 eigenvalues of (default mixing * dielectric matrix)
  average eigenvalue GAMMA=   1.5632
  2.4048  1.9176  1.1466  0.7837

 Free energy of the ion-electron system (eV)
  ---------------------------------------------------
  alpha Z        PSCENC =         0.02803141
  Ewald energy   TEWEN  =       116.41630449
  -Hartree energ DENC   =      -511.60978946
  -exchange      EXHF   =         0.00000000
  -V(xc)+E(xc)   XCENC  =        33.81630881
  PAW double counting   =       527.54812703     -529.59956385
  entropy T*S    EENTRO =        -0.00000000
  eigenvalues    EBANDS =      -108.14614474
  atomic energy  EATOM  =       457.35504338
  Solvation  Ediel_sol  =         0.00000000
  ---------------------------------------------------
  free energy    TOTEN  =       -14.19168293 eV

  energy without entropy =      -14.19168293  energy(sigma->0) =      -14.19168293


--------------------------------------------------------------------------------------------------------




--------------------------------------- Iteration      1(   6)  ---------------------------------------


    POTLOK:  cpu time     16.1988: real time     16.1990
    SETDIJ:  cpu time      0.0021: real time      0.0021
     EDDAV:  cpu time     13.0148: real time     13.0454
       DOS:  cpu time      0.0001: real time      0.0001
    CHARGE:  cpu time      2.0781: real time      2.0817
    MIXING:  cpu time      0.8910: real time      0.8927
    --------------------------------------------
      LOOP:  cpu time     32.1849: real time     32.2210

 eigenvalue-minimisations  :    32
 total energy-change (2. order) :-0.9705600E-04  (-0.3507665E-05)
 number of electron       8.0000000 magnetization 
 augmentation part        0.6792047 magnetization 

 Broyden mixing:
  rms(total) = 0.10759E-02    rms(broyden)= 0.10759E-02
  rms(prec ) = 0.13002E-02
  weight for this iteration     100.00

 eigenvalues of (default mixing * dielectric matrix)
  average eigenvalue GAMMA=   1.5077
  2.5259  1.9440  1.0681  1.0681  0.9326

 Free energy of the ion-electron system (eV)
  ---------------------------------------------------
  alpha Z        PSCENC =         0.02803141
  Ewald energy   TEWEN  =       116.41630449
  -Hartree energ DENC   =      -511.57148042
  -exchange      EXHF   =         0.00000000
  -V(xc)+E(xc)   XCENC  =        33.81555711
  PAW double counting   =       527.69306396     -529.74509658
  entropy T*S    EENTRO =        -0.00000000
  eigenvalues    EBANDS =      -108.18320334
  atomic energy  EATOM  =       457.35504338
  Solvation  Ediel_sol  =         0.00000000
  ---------------------------------------------------
  free energy    TOTEN  =       -14.19177999 eV

  energy without entropy =      -14.19177999  energy(sigma->0) =      -14.19177999


--------------------------------------------------------------------------------------------------------




--------------------------------------- Iteration      1(   7)  ---------------------------------------


    POTLOK:  cpu time     16.1006: real time     16.1050
    SETDIJ:  cpu time      0.0021: real time      0.0021
     EDDAV:  cpu time     12.9817: real time     12.9820
       DOS:  cpu time      0.0001: real time      0.0001
    CHARGE:  cpu time      2.0655: real time      2.0656
    MIXING:  cpu time      0.9269: real time      0.9269
    --------------------------------------------
      LOOP:  cpu time     32.0769: real time     32.0816

 eigenvalue-minimisations  :    32
 total energy-change (2. order) :-0.3764181E-04  (-0.1702965E-05)
 number of electron       8.0000000 magnetization 
 augmentation part        0.6790194 magnetization 

 Broyden mixing:
  rms(total) = 0.34090E-03    rms(broyden)= 0.34090E-03
  rms(prec ) = 0.60246E-03
  weight for this iteration     100.00

 eigenvalues of (default mixing * dielectric matrix)
  average eigenvalue GAMMA=   1.7313
  3.1017  2.3687  1.9534  0.9871  0.9871  0.9895

 Free energy of the ion-electron system (eV)
  ---------------------------------------------------
  alpha Z        PSCENC =         0.02803141
  Ewald energy   TEWEN  =       116.41630449
  -Hartree energ DENC   =      -511.57263333
  -exchange      EXHF   =         0.00000000
  -V(xc)+E(xc)   XCENC  =        33.81614701
  PAW double counting   =       527.78902164     -529.84165811
  entropy T*S    EENTRO =        -0.00000000
  eigenvalues    EBANDS =      -108.18207411
  atomic energy  EATOM  =       457.35504338
  Solvation  Ediel_sol  =         0.00000000
  ---------------------------------------------------
  free energy    TOTEN  =       -14.19181763 eV

  energy without entropy =      -14.19181763  energy(sigma->0) =      -14.19181763


--------------------------------------------------------------------------------------------------------




--------------------------------------- Iteration      1(   8)  ---------------------------------------


    POTLOK:  cpu time     15.9892: real time     15.9893
    SETDIJ:  cpu time      0.0021: real time      0.0021
     EDDAV:  cpu time     10.3191: real time     10.3192
       DOS:  cpu time      0.0001: real time      0.0001
    CHARGE:  cpu time      2.0669: real time      2.0669
    MIXING:  cpu time      0.9729: real time      0.9729
    --------------------------------------------
      LOOP:  cpu time     29.3503: real time     29.3504

 eigenvalue-minimisations  :    24
 total energy-change (2. order) :-0.6092169E-04  (-0.1581232E-05)
 number of electron       8.0000000 magnetization 
 augmentation part        0.6790508 magnetization 

 Broyden mixing:
  rms(total) = 0.17716E-03    rms(broyden)= 0.17716E-03
  rms(prec ) = 0.28155E-03
  weight for this iteration     100.00

 eigenvalues of (default mixing * dielectric matrix)
  average eigenvalue GAMMA=   1.7248
  3.6612  2.4918  1.8314  1.2596  0.9891  0.9891  0.8518

 Free energy of the ion-electron system (eV)
  ---------------------------------------------------
  alpha Z        PSCENC =         0.02803141
  Ewald energy   TEWEN  =       116.41630449
  -Hartree energ DENC   =      -511.52336612
  -exchange      EXHF   =         0.00000000
  -V(xc)+E(xc)   XCENC  =        33.81464981
  PAW double counting   =       527.88463711     -529.93736956
  entropy T*S    EENTRO =        -0.00000000
  eigenvalues    EBANDS =      -108.22980907
  atomic energy  EATOM  =       457.35504338
  Solvation  Ediel_sol  =         0.00000000
  ---------------------------------------------------
  free energy    TOTEN  =       -14.19187855 eV

  energy without entropy =      -14.19187855  energy(sigma->0) =      -14.19187855


--------------------------------------------------------------------------------------------------------




--------------------------------------- Iteration      1(   9)  ---------------------------------------


    POTLOK:  cpu time     15.9359: real time     15.9586
    SETDIJ:  cpu time      0.0021: real time      0.0021
     EDDAV:  cpu time     12.9323: real time     12.9392
       DOS:  cpu time      0.0001: real time      0.0001
    CHARGE:  cpu time      2.0595: real time      2.0595
    MIXING:  cpu time      1.0311: real time      1.0311
    --------------------------------------------
      LOOP:  cpu time     31.9610: real time     31.9907

 eigenvalue-minimisations  :    32
 total energy-change (2. order) :-0.1151124E-04  (-0.9417868E-07)
 number of electron       8.0000000 magnetization 
 augmentation part        0.6790394 magnetization 

 Broyden mixing:
  rms(total) = 0.14980E-03    rms(broyden)= 0.14980E-03
  rms(prec ) = 0.22324E-03
  weight for this iteration     100.00

 eigenvalues of (default mixing * dielectric matrix)
  average eigenvalue GAMMA=   1.9935
  4.9147  2.7440  2.4039  1.8850  1.1589  0.9759  0.9759  0.8901

 Free energy of the ion-electron system (eV)
  ---------------------------------------------------
  alpha Z        PSCENC =         0.02803141
  Ewald energy   TEWEN  =       116.41630449
  -Hartree energ DENC   =      -511.51835620
  -exchange      EXHF   =         0.00000000
  -V(xc)+E(xc)   XCENC  =        33.81463035
  PAW double counting   =       527.89233764     -529.94507474
  entropy T*S    EENTRO =        -0.00000000
  eigenvalues    EBANDS =      -108.23480638
  atomic energy  EATOM  =       457.35504338
  Solvation  Ediel_sol  =         0.00000000
  ---------------------------------------------------
  free energy    TOTEN  =       -14.19189006 eV

  energy without entropy =      -14.19189006  energy(sigma->0) =      -14.19189006


--------------------------------------------------------------------------------------------------------




--------------------------------------- Iteration      1(  10)  ---------------------------------------


    POTLOK:  cpu time     15.7483: real time     15.7483
    SETDIJ:  cpu time      0.0021: real time      0.0021
     EDDAV:  cpu time     10.2788: real time     10.2789
       DOS:  cpu time      0.0001: real time      0.0001
    CHARGE:  cpu time      2.0589: real time      2.0589
    MIXING:  cpu time      1.0737: real time      1.0737
    --------------------------------------------
      LOOP:  cpu time     29.1620: real time     29.1620

 eigenvalue-minimisations  :    24
 total energy-change (2. order) :-0.1799357E-04  (-0.2944041E-06)
 number of electron       8.0000000 magnetization 
 augmentation part        0.6790728 magnetization 

 Broyden mixing:
  rms(total) = 0.10865E-03    rms(broyden)= 0.10865E-03
  rms(prec ) = 0.13496E-03
  weight for this iteration     100.00

 eigenvalues of (default mixing * dielectric matrix)
  average eigenvalue GAMMA=   1.9824
  5.4363  3.0406  2.4547  1.8740  1.0946  1.0946  0.9556  0.9556  0.9359

 Free energy of the ion-electron system (eV)
  ---------------------------------------------------
  alpha Z        PSCENC =         0.02803141
  Ewald energy   TEWEN  =       116.41630449
  -Hartree energ DENC   =      -511.50358584
  -exchange      EXHF   =         0.00000000
  -V(xc)+E(xc)   XCENC  =        33.81422213
  PAW double counting   =       527.85996467     -529.91260969
  entropy T*S    EENTRO =        -0.00000000
  eigenvalues    EBANDS =      -108.24927861
  atomic energy  EATOM  =       457.35504338
  Solvation  Ediel_sol  =         0.00000000
  ---------------------------------------------------
  free energy    TOTEN  =       -14.19190806 eV

  energy without entropy =      -14.19190806  energy(sigma->0) =      -14.19190806


--------------------------------------------------------------------------------------------------------




--------------------------------------- Iteration      1(  11)  ---------------------------------------


    POTLOK:  cpu time     15.6844: real time     15.6844
    SETDIJ:  cpu time      0.0021: real time      0.0021
     EDDAV:  cpu time     10.2715: real time     10.2715
       DOS:  cpu time      0.0001: real time      0.0001
    CHARGE:  cpu time      2.0592: real time      2.0592
    MIXING:  cpu time      1.1367: real time      1.1367
    --------------------------------------------
      LOOP:  cpu time     29.1539: real time     29.1540

 eigenvalue-minimisations  :    24
 total energy-change (2. order) :-0.5821034E-05  (-0.3553020E-07)
 number of electron       8.0000000 magnetization 
 augmentation part        0.6790531 magnetization 

 Broyden mixing:
  rms(total) = 0.48220E-04    rms(broyden)= 0.48220E-04
  rms(prec ) = 0.68398E-04
  weight for this iteration     100.00

 eigenvalues of (default mixing * dielectric matrix)
  average eigenvalue GAMMA=   2.2397
  6.7104  3.8262  2.6860  2.3678  1.8882  1.1163  0.9970  0.9970  0.9043  0.9043

 Free energy of the ion-electron system (eV)
  ---------------------------------------------------
  alpha Z        PSCENC =         0.02803141
  Ewald energy   TEWEN  =       116.41630449
  -Hartree energ DENC   =      -511.50586202
  -exchange      EXHF   =         0.00000000
  -V(xc)+E(xc)   XCENC  =        33.81440126
  PAW double counting   =       527.86373090     -529.91641937
  entropy T*S    EENTRO =        -0.00000000
  eigenvalues    EBANDS =      -108.24714393
  atomic energy  EATOM  =       457.35504338
  Solvation  Ediel_sol  =         0.00000000
  ---------------------------------------------------
  free energy    TOTEN  =       -14.19191388 eV

  energy without entropy =      -14.19191388  energy(sigma->0) =      -14.19191388


--------------------------------------------------------------------------------------------------------




--------------------------------------- Iteration      1(  12)  ---------------------------------------


    POTLOK:  cpu time     15.7487: real time     15.7487
    SETDIJ:  cpu time      0.0021: real time      0.0021
     EDDAV:  cpu time      7.6826: real time      7.6826
       DOS:  cpu time      0.0001: real time      0.0001
    CHARGE:  cpu time      2.0601: real time      2.0601
    MIXING:  cpu time      1.2070: real time      1.2070
    --------------------------------------------
      LOOP:  cpu time     26.7006: real time     26.7006

 eigenvalue-minimisations  :    16
 total energy-change (2. order) :-0.7912612E-05  (-0.4273453E-07)
 number of electron       8.0000000 magnetization 
 augmentation part        0.6790531 magnetization 

 Broyden mixing:
  rms(total) = 0.20814E-04    rms(broyden)= 0.20814E-04
  rms(prec ) = 0.29588E-04
  weight for this iteration     100.00

 eigenvalues of (default mixing * dielectric matrix)
  average eigenvalue GAMMA=   2.2630
  7.1831  4.1378  2.7444  2.3935  1.7914  1.7179  1.0990  0.9787  0.9787  0.9600
  0.9083

 Free energy of the ion-electron system (eV)
  ---------------------------------------------------
  alpha Z        PSCENC =         0.02803141
  Ewald energy   TEWEN  =       116.41630449
  -Hartree energ DENC   =      -511.50516636
  -exchange      EXHF   =         0.00000000
  -V(xc)+E(xc)   XCENC  =        33.81443033
  PAW double counting   =       527.87266415     -529.92535932
  entropy T*S    EENTRO =        -0.00000000
  eigenvalues    EBANDS =      -108.24786987
  atomic energy  EATOM  =       457.35504338
  Solvation  Ediel_sol  =         0.00000000
  ---------------------------------------------------
  free energy    TOTEN  =       -14.19192179 eV

  energy without entropy =      -14.19192179  energy(sigma->0) =      -14.19192179


--------------------------------------------------------------------------------------------------------




--------------------------------------- Iteration      1(  13)  ---------------------------------------


    POTLOK:  cpu time     15.8540: real time     15.8539
    SETDIJ:  cpu time      0.0021: real time      0.0021
     EDDAV:  cpu time     10.2544: real time     10.2544
       DOS:  cpu time      0.0001: real time      0.0001
    CHARGE:  cpu time      2.0662: real time      2.0662
    MIXING:  cpu time      1.2717: real time      1.2717
    --------------------------------------------
      LOOP:  cpu time     29.4484: real time     29.4484

 eigenvalue-minimisations  :    24
 total energy-change (2. order) :-0.3014992E-05  (-0.7327110E-08)
 number of electron       8.0000000 magnetization 
 augmentation part        0.6790595 magnetization 

 Broyden mixing:
  rms(total) = 0.19785E-04    rms(broyden)= 0.19785E-04
  rms(prec ) = 0.24260E-04
  weight for this iteration     100.00

 eigenvalues of (default mixing * dielectric matrix)
  average eigenvalue GAMMA=   2.3472
  7.9472  4.4922  3.0640  2.4786  2.3498  1.8928  1.1145  1.1145  0.9616  0.9616
  0.8947  0.8947

 Free energy of the ion-electron system (eV)
  ---------------------------------------------------
  alpha Z        PSCENC =         0.02803141
  Ewald energy   TEWEN  =       116.41630449
  -Hartree energ DENC   =      -511.50428239
  -exchange      EXHF   =         0.00000000
  -V(xc)+E(xc)   XCENC  =        33.81439275
  PAW double counting   =       527.87089176     -529.92357790
  entropy T*S    EENTRO =        -0.00000000
  eigenvalues    EBANDS =      -108.24872830
  atomic energy  EATOM  =       457.35504338
  Solvation  Ediel_sol  =         0.00000000
  ---------------------------------------------------
  free energy    TOTEN  =       -14.19192481 eV

  energy without entropy =      -14.19192481  energy(sigma->0) =      -14.19192481


--------------------------------------------------------------------------------------------------------




--------------------------------------- Iteration      1(  14)  ---------------------------------------


    POTLOK:  cpu time     16.1302: real time     16.1302
    SETDIJ:  cpu time      0.0021: real time      0.0021
     EDDAV:  cpu time      7.6229: real time      7.6230
       DOS:  cpu time      0.0001: real time      0.0001
    CHARGE:  cpu time      2.0559: real time      2.0559
    MIXING:  cpu time      1.3362: real time      1.3362
    --------------------------------------------
      LOOP:  cpu time     27.1473: real time     27.1474

 eigenvalue-minimisations  :    16
 total energy-change (2. order) :-0.1929681E-05  (-0.4430905E-08)
 number of electron       8.0000000 magnetization 
 augmentation part        0.6790537 magnetization 

 Broyden mixing:
  rms(total) = 0.14620E-04    rms(broyden)= 0.14620E-04
  rms(prec ) = 0.16800E-04
  weight for this iteration     100.00

 eigenvalues of (default mixing * dielectric matrix)
  average eigenvalue GAMMA=   2.3414
  8.0739  4.9947  3.2237  2.6575  2.3245  1.8779  1.3957  1.0896  1.0896  0.9433
  0.9433  0.9284  0.8963

 Free energy of the ion-electron system (eV)
  ---------------------------------------------------
  alpha Z        PSCENC =         0.02803141
  Ewald energy   TEWEN  =       116.41630449
  -Hartree energ DENC   =      -511.50489861
  -exchange      EXHF   =         0.00000000
  -V(xc)+E(xc)   XCENC  =        33.81443552
  PAW double counting   =       527.87156197     -529.92426275
  entropy T*S    EENTRO =        -0.00000000
  eigenvalues    EBANDS =      -108.24814214
  atomic energy  EATOM  =       457.35504338
  Solvation  Ediel_sol  =         0.00000000
  ---------------------------------------------------
  free energy    TOTEN  =       -14.19192674 eV

  energy without entropy =      -14.19192674  energy(sigma->0) =      -14.19192674


--------------------------------------------------------------------------------------------------------




--------------------------------------- Iteration      1(  15)  ---------------------------------------


    POTLOK:  cpu time     16.2268: real time     16.2268
    SETDIJ:  cpu time      0.0021: real time      0.0021
     EDDAV:  cpu time      7.6113: real time      7.6113
       DOS:  cpu time      0.0001: real time      0.0001
    --------------------------------------------
      LOOP:  cpu time     23.8402: real time     23.8403

 eigenvalue-minimisations  :    16
 total energy-change (2. order) :-0.7230188E-06  (-0.1130172E-08)
 number of electron       8.0000000 magnetization 
 augmentation part        0.6790537 magnetization 

 Free energy of the ion-electron system (eV)
  ---------------------------------------------------
  alpha Z        PSCENC =         0.02803141
  Ewald energy   TEWEN  =       116.41630449
  -Hartree energ DENC   =      -511.50444280
  -exchange      EXHF   =         0.00000000
  -V(xc)+E(xc)   XCENC  =        33.81441330
  PAW double counting   =       527.87074693     -529.92343654
  entropy T*S    EENTRO =        -0.00000000
  eigenvalues    EBANDS =      -108.24858762
  atomic energy  EATOM  =       457.35504338
  Solvation  Ediel_sol  =         0.00000000
  ---------------------------------------------------
  free energy    TOTEN  =       -14.19192746 eV

  energy without entropy =      -14.19192746  energy(sigma->0) =      -14.19192746


--------------------------------------------------------------------------------------------------------




 average (electrostatic) potential at core
  the test charge radii are     0.5201  0.7215
  (the norm of the test charge is              1.0000)
       1 -44.3692       2 -44.3626       3 -80.5320
 
 
 
 E-fermi :  -6.1753     XC(G=0):  -0.0941     alpha+bet : -0.0163

 Fermi energy:        -6.1753052047

 k-point     1 :       0.0000    0.0000    0.0000
  band No.  band energies     occupation 
      1     -24.9518      2.00000
      2     -12.9113      2.00000
      3      -9.1352      2.00000
      4      -7.1260      2.00000
      5      -1.0745      0.00000
      6       0.0184      0.00000
      7       0.1999      0.00000
      8       0.3103      0.00000


--------------------------------------------------------------------------------------------------------


 soft charge-density along one line, spin component           1
         0         1         2         3         4         5         6         7         8         9
 total charge-density along one line
 
 pseudopotential strength for first ion, spin component:           1
 -2.381  -4.111  -0.000   0.003   0.000
 -4.111  -7.012  -0.000   0.008   0.000
 -0.000  -0.000  -0.326  -0.000  -0.000
  0.003   0.008  -0.000  -0.318  -0.000
  0.000   0.000  -0.000  -0.000  -0.326
 total augmentation occupancy for first ion, spin component:           1
  3.589  -0.755   0.000  -0.649   0.005
 -0.755   0.204   0.000   0.135  -0.006
  0.000   0.000   0.035   0.000   0.000
 -0.649   0.135   0.000   0.118  -0.003
  0.005  -0.006   0.000  -0.003   0.023


------------------------ aborting loop because EDIFF is reached ----------------------------------------


    CHARGE:  cpu time      2.0458: real time      2.0458
    FORLOC:  cpu time      1.4339: real time      1.4339
    FORNL :  cpu time      0.6549: real time      0.6549
    STRESS:  cpu time      6.7292: real time      6.7292
    FORCOR:  cpu time     17.4662: real time     17.4662
    FORHAR:  cpu time      5.0255: real time      5.0255
    MIXING:  cpu time      1.4047: real time      1.4047
    OFIELD:  cpu time      0.0000: real time      0.0000

  FORCE on cell =-STRESS in cart. coord.  units (eV):
  Direction    XX          YY          ZZ          XY          YZ          ZX
  --------------------------------------------------------------------------------------
  Alpha Z     0.02803     0.02803     0.02803
  Ewald      59.69800   -21.81814    78.53640     0.00341     0.00032    26.95786
  Hartree   174.39701   159.30170   177.80589     0.00023    -0.00014     4.88994
  E(xc)     -35.84577   -36.20374   -35.77170    -0.00000     0.00000     0.10650
  Local    -318.56506  -246.17871  -335.77842    -0.00107    -0.00100   -24.65247
  n-local   -30.01224   -30.46113   -29.76426     0.00055    -0.00044     0.36789
  augment     6.37227     8.08957     6.04972    -0.00001     0.00003    -0.46388
  Kinetic   142.78386   167.24219   137.40445    -0.00159     0.00024    -7.74683
  Fock        0.00000     0.00000     0.00000     0.00000     0.00000     0.00000
  -------------------------------------------------------------------------------------
  Total      -1.14389    -0.00023    -1.48990     0.00000     0.00000    -0.54099
  in kB      -0.22909    -0.00005    -0.29839     0.00000     0.00000    -0.10834
  external pressure =       -0.18 kB  Pullay stress =        0.00 kB


 VOLUME and BASIS-vectors are now :
 -----------------------------------------------------------------------------
  energy-cutoff  :     1500.00
  volume of cell :     8000.00
      direct lattice vectors                 reciprocal lattice vectors
    20.000000000  0.000000000  0.000000000     0.050000000  0.000000000  0.000000000
     0.000000000 20.000000000  0.000000000     0.000000000  0.050000000  0.000000000
     0.000000000  0.000000000 20.000000000     0.000000000  0.000000000  0.050000000

  length of vectors
    20.000000000 20.000000000 20.000000000     0.050000000  0.050000000  0.050000000


 FORCES acting on ions
    electron-ion (+dipol)            ewald-force                    non-local-force                 convergence-correction
 -----------------------------------------------------------------------------------------------
   -.107E+01 -.814E-02 -.847E+02   0.101E+01 -.758E-03 0.909E+02   -.111E+00 -.203E-19 -.752E+01   -.388E-05 0.642E-09 0.157E-04
   0.796E+02 -.434E-02 0.288E+02   -.854E+02 -.355E-02 -.308E+02   0.705E+01 0.271E-19 0.257E+01   -.150E-04 0.540E-10 -.340E-05
   -.468E+02 -.116E+00 0.334E+02   0.844E+02 0.431E-02 -.601E+02   -.386E+02 -.434E-18 0.275E+02   0.195E-04 0.345E-07 -.552E-04
 -----------------------------------------------------------------------------------------------
   0.317E+02 -.129E+00 -.225E+02   0.000E+00 -.607E-17 -.711E-14   -.317E+02 -.427E-18 0.225E+02   0.599E-06 0.352E-07 -.429E-04
 
 
 POSITION                                       TOTAL-FORCE (eV/Angst)
 -----------------------------------------------------------------------------------
      5.10791      0.00007      1.44532        -0.175119      0.000000     -1.306334
      4.18045      0.00004      0.14168         1.202924      0.000000      0.602796
      5.13390      0.00008      0.44561        -1.027805     -0.000000      0.703539
 -----------------------------------------------------------------------------------
    total drift:                               -0.000103     -0.128769     -0.000142


--------------------------------------------------------------------------------------------------------



  FREE ENERGIE OF THE ION-ELECTRON SYSTEM (eV)
  ---------------------------------------------------
  free  energy   TOTEN  =       -14.19192746 eV

  energy  without entropy=      -14.19192746  energy(sigma->0) =      -14.19192746
 


--------------------------------------------------------------------------------------------------------


    POTLOK:  cpu time     16.3919: real time     16.3919


--------------------------------------------------------------------------------------------------------




--------------------------------------------------------------------------------------------------------


    WAVPRE:  cpu time     50.3415: real time     50.5244
    FEWALD:  cpu time      0.0001: real time      0.0001
    ORTHCH:  cpu time      0.2717: real time      0.2717
     LOOP+:  cpu time    541.8244: real time    542.0828


--------------------------------------- Ionic step        2  -------------------------------------------




--------------------------------------- Iteration      2(   1)  ---------------------------------------


    POTLOK:  cpu time     16.1996: real time     16.1996
    SETDIJ:  cpu time      0.0022: real time      0.0022
     EDDAV:  cpu time      7.6751: real time      7.6751
       DOS:  cpu time      0.0001: real time      0.0001
    CHARGE:  cpu time      2.0846: real time      2.0846
    MIXING:  cpu time      0.7172: real time      0.7172
    --------------------------------------------
      LOOP:  cpu time     26.6787: real time     26.6787

 eigenvalue-minimisations  :    16
 total energy-change (2. order) : 0.1889805E+00  (-0.2974663E+01)
 number of electron       7.9999999 magnetization 
 augmentation part        0.7466553 magnetization 

 Broyden mixing:
  rms(total) = 0.20638E+00    rms(broyden)= 0.20637E+00
  rms(prec ) = 0.21806E+00
  weight for this iteration     100.00

 Free energy of the ion-electron system (eV)
  ---------------------------------------------------
  alpha Z        PSCENC =         0.02803141
  Ewald energy   TEWEN  =       136.00798949
  -Hartree energ DENC   =      -520.52508997
  -exchange      EXHF   =         0.00000000
  -V(xc)+E(xc)   XCENC  =        34.23626237
  PAW double counting   =       527.87086861     -529.92355920
  entropy T*S    EENTRO =        -0.00000000
  eigenvalues    EBANDS =      -119.05249236
  atomic energy  EATOM  =       457.35504338
  Solvation  Ediel_sol  =         0.00000000
  ---------------------------------------------------
  free energy    TOTEN  =       -14.00294627 eV

  energy without entropy =      -14.00294627  energy(sigma->0) =      -14.00294627


--------------------------------------------------------------------------------------------------------




--------------------------------------- Iteration      2(   2)  ---------------------------------------


    POTLOK:  cpu time     15.3829: real time     15.3829
    SETDIJ:  cpu time      0.0021: real time      0.0021
     EDDAV:  cpu time      7.6680: real time      7.6680
       DOS:  cpu time      0.0001: real time      0.0001
    CHARGE:  cpu time      2.0763: real time      2.0763
    MIXING:  cpu time      0.7464: real time      0.7464
    --------------------------------------------
      LOOP:  cpu time     25.8758: real time     25.8758

 eigenvalue-minimisations  :    16
 total energy-change (2. order) : 0.4361344E-01  (-0.6839110E-01)
 number of electron       7.9999999 magnetization 
 augmentation part        0.7366149 magnetization 

 Broyden mixing:
  rms(total) = 0.85421E-01    rms(broyden)= 0.85421E-01
  rms(prec ) = 0.89248E-01
  weight for this iteration     100.00

 eigenvalues of (default mixing * dielectric matrix)
  average eigenvalue GAMMA=   1.2821
  1.2821

 Free energy of the ion-electron system (eV)
  ---------------------------------------------------
  alpha Z        PSCENC =         0.02803141
  Ewald energy   TEWEN  =       136.00798949
  -Hartree energ DENC   =      -525.13319200
  -exchange      EXHF   =         0.00000000
  -V(xc)+E(xc)   XCENC  =        34.49667568
  PAW double counting   =       557.40302039     -559.54218708
  entropy T*S    EENTRO =        -0.00000000
  eigenvalues    EBANDS =      -114.57471411
  atomic energy  EATOM  =       457.35504338
  Solvation  Ediel_sol  =         0.00000000
  ---------------------------------------------------
  free energy    TOTEN  =       -13.95933284 eV

  energy without entropy =      -13.95933284  energy(sigma->0) =      -13.95933284


--------------------------------------------------------------------------------------------------------




--------------------------------------- Iteration      2(   3)  ---------------------------------------


    POTLOK:  cpu time     15.5707: real time     15.5707
    SETDIJ:  cpu time      0.0021: real time      0.0021
     EDDAV:  cpu time      7.6802: real time      7.6803
       DOS:  cpu time      0.0001: real time      0.0001
    CHARGE:  cpu time      2.0757: real time      2.0757
    MIXING:  cpu time      0.7748: real time      0.7748
    --------------------------------------------
      LOOP:  cpu time     26.1036: real time     26.1037

 eigenvalue-minimisations  :    16
 total energy-change (2. order) : 0.1044355E-01  (-0.6253893E-02)
 number of electron       7.9999999 magnetization 
 augmentation part        0.7271027 magnetization 

 Broyden mixing:
  rms(total) = 0.37546E-01    rms(broyden)= 0.37546E-01
  rms(prec ) = 0.39074E-01
  weight for this iteration     100.00

 eigenvalues of (default mixing * dielectric matrix)
  average eigenvalue GAMMA=   1.3498
  1.3498  1.3498

 Free energy of the ion-electron system (eV)
  ---------------------------------------------------
  alpha Z        PSCENC =         0.02803141
  Ewald energy   TEWEN  =       136.00798949
  -Hartree energ DENC   =      -526.84466258
  -exchange      EXHF   =         0.00000000
  -V(xc)+E(xc)   XCENC  =        34.59472501
  PAW double counting   =       577.79559765     -579.98702094
  entropy T*S    EENTRO =        -0.00000000
  eigenvalues    EBANDS =      -112.89859271
  atomic energy  EATOM  =       457.35504338
  Solvation  Ediel_sol  =         0.00000000
  ---------------------------------------------------
  free energy    TOTEN  =       -13.94888929 eV

  energy without entropy =      -13.94888929  energy(sigma->0) =      -13.94888929


--------------------------------------------------------------------------------------------------------




--------------------------------------- Iteration      2(   4)  ---------------------------------------


    POTLOK:  cpu time     15.8487: real time     15.8488
    SETDIJ:  cpu time      0.0021: real time      0.0021
     EDDAV:  cpu time     10.2760: real time     10.2760
       DOS:  cpu time      0.0001: real time      0.0001
    CHARGE:  cpu time      2.0757: real time      2.0757
    MIXING:  cpu time      0.8093: real time      0.8093
    --------------------------------------------
      LOOP:  cpu time     29.0118: real time     29.0119

 eigenvalue-minimisations  :    24
 total energy-change (2. order) : 0.1437960E-02  (-0.1268934E-02)
 number of electron       7.9999999 magnetization 
 augmentation part        0.7318550 magnetization 

 Broyden mixing:
  rms(total) = 0.19724E-01    rms(broyden)= 0.19724E-01
  rms(prec ) = 0.20625E-01
  weight for this iteration     100.00

 eigenvalues of (default mixing * dielectric matrix)
  average eigenvalue GAMMA=   1.4417
  2.3379  0.9935  0.9935

 Free energy of the ion-electron system (eV)
  ---------------------------------------------------
  alpha Z        PSCENC =         0.02803141
  Ewald energy   TEWEN  =       136.00798949
  -Hartree energ DENC   =      -526.27440374
  -exchange      EXHF   =         0.00000000
  -V(xc)+E(xc)   XCENC  =        34.56406673
  PAW double counting   =       585.19029489     -587.38137084
  entropy T*S    EENTRO =        -0.00000000
  eigenvalues    EBANDS =      -113.43710264
  atomic energy  EATOM  =       457.35504338
  Solvation  Ediel_sol  =         0.00000000
  ---------------------------------------------------
  free energy    TOTEN  =       -13.94745133 eV

  energy without entropy =      -13.94745133  energy(sigma->0) =      -13.94745133


--------------------------------------------------------------------------------------------------------




--------------------------------------- Iteration      2(   5)  ---------------------------------------


    POTLOK:  cpu time     15.8983: real time     15.8983
    SETDIJ:  cpu time      0.0021: real time      0.0021
     EDDAV:  cpu time     10.2558: real time     10.2592
       DOS:  cpu time      0.0001: real time      0.0001
    CHARGE:  cpu time      2.0909: real time      2.0967
    MIXING:  cpu time      0.8388: real time      0.8398
    --------------------------------------------
      LOOP:  cpu time     29.0860: real time     29.0963

 eigenvalue-minimisations  :    24
 total energy-change (2. order) : 0.4992911E-03  (-0.3242408E-03)
 number of electron       7.9999999 magnetization 
 augmentation part        0.7299531 magnetization 

 Broyden mixing:
  rms(total) = 0.28871E-02    rms(broyden)= 0.28871E-02
  rms(prec ) = 0.31791E-02
  weight for this iteration     100.00

 eigenvalues of (default mixing * dielectric matrix)
  average eigenvalue GAMMA=   1.4972
  2.3049  1.6324  1.1396  0.9121

 Free energy of the ion-electron system (eV)
  ---------------------------------------------------
  alpha Z        PSCENC =         0.02803141
  Ewald energy   TEWEN  =       136.00798949
  -Hartree energ DENC   =      -526.70163338
  -exchange      EXHF   =         0.00000000
  -V(xc)+E(xc)   XCENC  =        34.58910743
  PAW double counting   =       594.16087128     -596.37191064
  entropy T*S    EENTRO =        -0.00000000
  eigenvalues    EBANDS =      -113.01445101
  atomic energy  EATOM  =       457.35504338
  Solvation  Ediel_sol  =         0.00000000
  ---------------------------------------------------
  free energy    TOTEN  =       -13.94695204 eV

  energy without entropy =      -13.94695204  energy(sigma->0) =      -13.94695204


--------------------------------------------------------------------------------------------------------




--------------------------------------- Iteration      2(   6)  ---------------------------------------


    POTLOK:  cpu time     16.0633: real time     16.0658
    SETDIJ:  cpu time      0.0022: real time      0.0022
     EDDAV:  cpu time     10.3015: real time     10.3016
       DOS:  cpu time      0.0001: real time      0.0001
    CHARGE:  cpu time      2.0926: real time      2.0926
    MIXING:  cpu time      0.8886: real time      0.8886
    --------------------------------------------
      LOOP:  cpu time     29.3483: real time     29.3509

 eigenvalue-minimisations  :    24
 total energy-change (2. order) :-0.1723005E-03  (-0.1766706E-04)
 number of electron       7.9999999 magnetization 
 augmentation part        0.7295022 magnetization 

 Broyden mixing:
  rms(total) = 0.20159E-02    rms(broyden)= 0.20159E-02
  rms(prec ) = 0.22801E-02
  weight for this iteration     100.00

 eigenvalues of (default mixing * dielectric matrix)
  average eigenvalue GAMMA=   1.4689
  2.4773  1.8173  1.1377  0.9562  0.9562

 Free energy of the ion-electron system (eV)
  ---------------------------------------------------
  alpha Z        PSCENC =         0.02803141
  Ewald energy   TEWEN  =       136.00798949
  -Hartree energ DENC   =      -526.73626955
  -exchange      EXHF   =         0.00000000
  -V(xc)+E(xc)   XCENC  =        34.59062379
  PAW double counting   =       594.85004976     -597.06320227
  entropy T*S    EENTRO =        -0.00000000
  eigenvalues    EBANDS =      -112.97939035
  atomic energy  EATOM  =       457.35504338
  Solvation  Ediel_sol  =         0.00000000
  ---------------------------------------------------
  free energy    TOTEN  =       -13.94712434 eV

  energy without entropy =      -13.94712434  energy(sigma->0) =      -13.94712434


--------------------------------------------------------------------------------------------------------




--------------------------------------- Iteration      2(   7)  ---------------------------------------


    POTLOK:  cpu time     16.1280: real time     16.1282
    SETDIJ:  cpu time      0.0021: real time      0.0021
     EDDAV:  cpu time     10.2937: real time     10.2938
       DOS:  cpu time      0.0001: real time      0.0001
    CHARGE:  cpu time      2.0921: real time      2.0922
    MIXING:  cpu time      0.9322: real time      0.9322
    --------------------------------------------
      LOOP:  cpu time     29.4483: real time     29.4485

 eigenvalue-minimisations  :    24
 total energy-change (2. order) :-0.7372073E-04  (-0.4946742E-05)
 number of electron       7.9999999 magnetization 
 augmentation part        0.7298276 magnetization 

 Broyden mixing:
  rms(total) = 0.44760E-03    rms(broyden)= 0.44760E-03
  rms(prec ) = 0.74227E-03
  weight for this iteration     100.00

 eigenvalues of (default mixing * dielectric matrix)
  average eigenvalue GAMMA=   1.5294
  2.5020  2.1737  1.4892  0.9232  0.9232  1.1651

 Free energy of the ion-electron system (eV)
  ---------------------------------------------------
  alpha Z        PSCENC =         0.02803141
  Ewald energy   TEWEN  =       136.00798949
  -Hartree energ DENC   =      -526.69833658
  -exchange      EXHF   =         0.00000000
  -V(xc)+E(xc)   XCENC  =        34.58829769
  PAW double counting   =       595.11803057     -597.33057034
  entropy T*S    EENTRO =        -0.00000000
  eigenvalues    EBANDS =      -113.01568368
  atomic energy  EATOM  =       457.35504338
  Solvation  Ediel_sol  =         0.00000000
  ---------------------------------------------------
  free energy    TOTEN  =       -13.94719806 eV

  energy without entropy =      -13.94719806  energy(sigma->0) =      -13.94719806


--------------------------------------------------------------------------------------------------------




--------------------------------------- Iteration      2(   8)  ---------------------------------------


    POTLOK:  cpu time     16.2112: real time     16.2113
    SETDIJ:  cpu time      0.0022: real time      0.0021
     EDDAV:  cpu time     10.2884: real time     10.2885
       DOS:  cpu time      0.0001: real time      0.0001
    CHARGE:  cpu time      2.0846: real time      2.0847
    MIXING:  cpu time      0.9740: real time      0.9740
    --------------------------------------------
      LOOP:  cpu time     29.5604: real time     29.5606

 eigenvalue-minimisations  :    24
 total energy-change (2. order) :-0.1296259E-03  (-0.1897076E-05)
 number of electron       7.9999999 magnetization 
 augmentation part        0.7299551 magnetization 

 Broyden mixing:
  rms(total) = 0.58590E-03    rms(broyden)= 0.58590E-03
  rms(prec ) = 0.72697E-03
  weight for this iteration     100.00

 eigenvalues of (default mixing * dielectric matrix)
  average eigenvalue GAMMA=   1.6090
  3.0334  2.3958  1.8397  1.0001  1.0001  0.9970  0.9970

 Free energy of the ion-electron system (eV)
  ---------------------------------------------------
  alpha Z        PSCENC =         0.02803141
  Ewald energy   TEWEN  =       136.00798949
  -Hartree energ DENC   =      -526.68409303
  -exchange      EXHF   =         0.00000000
  -V(xc)+E(xc)   XCENC  =        34.58704993
  PAW double counting   =       595.08066990     -597.29275266
  entropy T*S    EENTRO =        -0.00000000
  eigenvalues    EBANDS =      -113.02926610
  atomic energy  EATOM  =       457.35504338
  Solvation  Ediel_sol  =         0.00000000
  ---------------------------------------------------
  free energy    TOTEN  =       -13.94732769 eV

  energy without entropy =      -13.94732769  energy(sigma->0) =      -13.94732769


--------------------------------------------------------------------------------------------------------




--------------------------------------- Iteration      2(   9)  ---------------------------------------


    POTLOK:  cpu time     16.2976: real time     16.2978
    SETDIJ:  cpu time      0.0021: real time      0.0021
     EDDAV:  cpu time     10.2997: real time     10.2998
       DOS:  cpu time      0.0001: real time      0.0001
    CHARGE:  cpu time      2.0867: real time      2.0867
    MIXING:  cpu time      1.0293: real time      1.0293
    --------------------------------------------
      LOOP:  cpu time     29.7155: real time     29.7158

 eigenvalue-minimisations  :    24
 total energy-change (2. order) :-0.9681218E-04  (-0.1309736E-05)
 number of electron       7.9999999 magnetization 
 augmentation part        0.7298577 magnetization 

 Broyden mixing:
  rms(total) = 0.16910E-03    rms(broyden)= 0.16910E-03
  rms(prec ) = 0.28821E-03
  weight for this iteration     100.00

 eigenvalues of (default mixing * dielectric matrix)
  average eigenvalue GAMMA=   1.8327
  4.3242  2.5282  2.0500  1.8535  0.9827  0.9827  1.0244  0.9156

 Free energy of the ion-electron system (eV)
  ---------------------------------------------------
  alpha Z        PSCENC =         0.02803141
  Ewald energy   TEWEN  =       136.00798949
  -Hartree energ DENC   =      -526.70636988
  -exchange      EXHF   =         0.00000000
  -V(xc)+E(xc)   XCENC  =        34.58793488
  PAW double counting   =       595.10454326     -597.31684078
  entropy T*S    EENTRO =        -0.00000000
  eigenvalues    EBANDS =      -113.00775625
  atomic energy  EATOM  =       457.35504338
  Solvation  Ediel_sol  =         0.00000000
  ---------------------------------------------------
  free energy    TOTEN  =       -13.94742450 eV

  energy without entropy =      -13.94742450  energy(sigma->0) =      -13.94742450


--------------------------------------------------------------------------------------------------------




--------------------------------------- Iteration      2(  10)  ---------------------------------------


    POTLOK:  cpu time     16.4147: real time     16.4148
    SETDIJ:  cpu time      0.0021: real time      0.0021
     EDDAV:  cpu time     10.2829: real time     10.2829
       DOS:  cpu time      0.0001: real time      0.0001
    CHARGE:  cpu time      2.0844: real time      2.0844
    MIXING:  cpu time      1.0751: real time      1.0751
    --------------------------------------------
      LOOP:  cpu time     29.8593: real time     29.8595

 eigenvalue-minimisations  :    24
 total energy-change (2. order) :-0.8202196E-04  (-0.8629687E-06)
 number of electron       7.9999999 magnetization 
 augmentation part        0.7298543 magnetization 

 Broyden mixing:
  rms(total) = 0.12879E-03    rms(broyden)= 0.12879E-03
  rms(prec ) = 0.17018E-03
  weight for this iteration     100.00

 eigenvalues of (default mixing * dielectric matrix)
  average eigenvalue GAMMA=   1.9874
  5.8283  2.7275  2.3743  1.8800  0.9922  0.9922  1.1303  1.0150  0.9466

 Free energy of the ion-electron system (eV)
  ---------------------------------------------------
  alpha Z        PSCENC =         0.02803141
  Ewald energy   TEWEN  =       136.00798949
  -Hartree energ DENC   =      -526.71463872
  -exchange      EXHF   =         0.00000000
  -V(xc)+E(xc)   XCENC  =        34.58809699
  PAW double counting   =       595.07285256     -597.28513738
  entropy T*S    EENTRO =        -0.00000000
  eigenvalues    EBANDS =      -112.99974425
  atomic energy  EATOM  =       457.35504338
  Solvation  Ediel_sol  =         0.00000000
  ---------------------------------------------------
  free energy    TOTEN  =       -13.94750652 eV

  energy without entropy =      -13.94750652  energy(sigma->0) =      -13.94750652


--------------------------------------------------------------------------------------------------------




--------------------------------------- Iteration      2(  11)  ---------------------------------------


    POTLOK:  cpu time     16.4795: real time     16.4800
    SETDIJ:  cpu time      0.0022: real time      0.0022
     EDDAV:  cpu time     12.9323: real time     12.9324
       DOS:  cpu time      0.0001: real time      0.0001
    CHARGE:  cpu time      2.0861: real time      2.0861
    MIXING:  cpu time      1.1470: real time      1.1470
    --------------------------------------------
      LOOP:  cpu time     32.6472: real time     32.6478

[...]
  -Hartree energ DENC   =      -515.75427396
  -exchange      EXHF   =         0.00000000
  -V(xc)+E(xc)   XCENC  =        34.02835571
  PAW double counting   =       544.68540045     -546.76618549
  entropy T*S    EENTRO =        -0.00000000
  eigenvalues    EBANDS =      -109.68308727
  atomic energy  EATOM  =       457.35504338
  Solvation  Ediel_sol  =         0.00000000
  ---------------------------------------------------
  free energy    TOTEN  =       -14.23405250 eV

  energy without entropy =      -14.23405250  energy(sigma->0) =      -14.23405250


--------------------------------------------------------------------------------------------------------




--------------------------------------- Iteration     13(   2)  ---------------------------------------


    POTLOK:  cpu time     16.3397: real time     16.3398
    SETDIJ:  cpu time      0.0021: real time      0.0021
     EDDAV:  cpu time     12.8837: real time     12.8838
       DOS:  cpu time      0.0001: real time      0.0001
    --------------------------------------------
      LOOP:  cpu time     29.2256: real time     29.2257

 eigenvalue-minimisations  :    32
 total energy-change (2. order) :-0.1350736E-07  (-0.6682210E-09)
 number of electron       8.0000000 magnetization 
 augmentation part        0.6904611 magnetization 

 Free energy of the ion-electron system (eV)
  ---------------------------------------------------
  alpha Z        PSCENC =         0.02803141
  Ewald energy   TEWEN  =       121.87266327
  -Hartree energ DENC   =      -515.75475922
  -exchange      EXHF   =         0.00000000
  -V(xc)+E(xc)   XCENC  =        34.02838327
  PAW double counting   =       544.68532423     -546.76611393
  entropy T*S    EENTRO =        -0.00000000
  eigenvalues    EBANDS =      -109.68262492
  atomic energy  EATOM  =       457.35504338
  Solvation  Ediel_sol  =         0.00000000
  ---------------------------------------------------
  free energy    TOTEN  =       -14.23405252 eV

  energy without entropy =      -14.23405251  energy(sigma->0) =      -14.23405251


--------------------------------------------------------------------------------------------------------




 average (electrostatic) potential at core
  the test charge radii are     0.5201  0.7215
  (the norm of the test charge is              1.0000)
       1 -44.7122       2 -44.7121       3 -80.5684
 
 
 
 E-fermi :  -6.2622     XC(G=0):  -0.0795     alpha+bet : -0.0163

 Fermi energy:        -6.2622201541

 k-point     1 :       0.0000    0.0000    0.0000
  band No.  band energies     occupation 
      1     -25.2925      2.00000
      2     -13.0945      2.00000
      3      -9.2588      2.00000
      4      -7.1955      2.00000
      5      -0.9852      0.00000
      6       0.0341      0.00000
      7       0.2397      0.00000
      8       0.3265      0.00000


--------------------------------------------------------------------------------------------------------


 soft charge-density along one line, spin component           1
         0         1         2         3         4         5         6         7         8         9
 total charge-density along one line
 
 pseudopotential strength for first ion, spin component:           1
 -2.384  -4.117  -0.000   0.003  -0.000
 -4.117  -7.023  -0.000   0.009  -0.000
 -0.000  -0.000  -0.324  -0.000   0.000
  0.003   0.009  -0.000  -0.314  -0.000
 -0.000  -0.000   0.000  -0.000  -0.323
 total augmentation occupancy for first ion, spin component:           1
  3.738  -0.783   0.000  -0.720   0.018
 -0.783   0.216   0.000   0.146  -0.009
  0.000   0.000   0.041   0.000   0.000
 -0.720   0.146   0.000   0.139  -0.005
  0.018  -0.009   0.000  -0.005   0.027


------------------------ aborting loop because EDIFF is reached ----------------------------------------


    CHARGE:  cpu time      2.0736: real time      2.0737
    FORLOC:  cpu time      1.4324: real time      1.4324
    FORNL :  cpu time      0.6558: real time      0.6558
    STRESS:  cpu time      6.7381: real time      6.7382
    FORCOR:  cpu time     17.5251: real time     17.5251
    FORHAR:  cpu time      5.0551: real time      5.0551
    MIXING:  cpu time      0.7713: real time      0.7713
    OFIELD:  cpu time      0.0000: real time      0.0000

  FORCE on cell =-STRESS in cart. coord.  units (eV):
  Direction    XX          YY          ZZ          XY          YZ          ZX
  --------------------------------------------------------------------------------------
  Alpha Z     0.02803     0.02803     0.02803
  Ewald      62.99461   -21.81647    80.69456     0.00364     0.00029    25.42787
  Hartree   175.95671   160.81466   178.98371     0.00025    -0.00015     4.34022
  E(xc)     -36.06536   -36.42741   -36.00027    -0.00000     0.00000     0.09370
  Local    -322.46178  -248.18705  -338.21725    -0.00125    -0.00092   -22.61335
  n-local   -30.68570   -30.79191   -30.41916     0.00052    -0.00042     0.38377
  augment     6.41418     8.15659     6.09745    -0.00001     0.00002    -0.45593
  Kinetic   143.81681   168.22330   138.83176    -0.00151     0.00018    -7.17617
  Fock        0.00000     0.00000     0.00000     0.00000     0.00000     0.00000
  -------------------------------------------------------------------------------------
  Total      -0.00250    -0.00027    -0.00118     0.00000     0.00000     0.00011
  in kB      -0.00050    -0.00005    -0.00024     0.00000     0.00000     0.00002
  external pressure =       -0.00 kB  Pullay stress =        0.00 kB


 VOLUME and BASIS-vectors are now :
 -----------------------------------------------------------------------------
  energy-cutoff  :     1500.00
  volume of cell :     8000.00
      direct lattice vectors                 reciprocal lattice vectors
    20.000000000  0.000000000  0.000000000     0.050000000  0.000000000  0.000000000
     0.000000000 20.000000000  0.000000000     0.000000000  0.050000000  0.000000000
     0.000000000  0.000000000 20.000000000     0.000000000  0.000000000  0.050000000

  length of vectors
    20.000000000 20.000000000 20.000000000     0.050000000  0.050000000  0.050000000


 FORCES acting on ions
    electron-ion (+dipol)            ewald-force                    non-local-force                 convergence-correction
 -----------------------------------------------------------------------------------------------
   0.137E+00 -.855E-02 -.880E+02   -.185E+00 -.822E-03 0.963E+02   0.488E-01 -.678E-20 -.832E+01   0.322E-05 -.302E-09 0.104E-04
   0.832E+02 -.455E-02 0.287E+02   -.911E+02 -.388E-02 -.314E+02   0.788E+01 0.000E+00 0.268E+01   -.154E-04 -.112E-08 -.165E-04
   -.513E+02 -.117E+00 0.365E+02   0.912E+02 0.471E-02 -.649E+02   -.400E+02 -.867E-18 0.284E+02   0.582E-04 0.160E-07 -.901E-04
 -----------------------------------------------------------------------------------------------
   0.321E+02 -.130E+00 -.228E+02   0.000E+00 -.607E-17 0.000E+00   -.321E+02 -.874E-18 0.228E+02   0.460E-04 0.146E-07 -.962E-04
 
 
 POSITION                                       TOTAL-FORCE (eV/Angst)
 -----------------------------------------------------------------------------------
      5.09117      0.00007      1.41860         0.000694      0.000000     -0.000504
      4.20047      0.00004      0.16635         0.000972      0.000000     -0.000281
      5.13062      0.00008      0.44766        -0.001667     -0.000000      0.000785
 -----------------------------------------------------------------------------------
    total drift:                                0.000027     -0.130285     -0.000232


--------------------------------------------------------------------------------------------------------



  FREE ENERGIE OF THE ION-ELECTRON SYSTEM (eV)
  ---------------------------------------------------
  free  energy   TOTEN  =       -14.23405252 eV

  energy  without entropy=      -14.23405251  energy(sigma->0) =      -14.23405251
 
 d Force = 0.5847447E-08[ 0.130E-08, 0.104E-07]  d Energy = 0.3885083E-07-0.330E-07
 d Force =-0.1802946E-02[-0.180E-02,-0.180E-02]  d Ewald  =-0.1802946E-02 0.419E-11


--------------------------------------------------------------------------------------------------------


    POTLOK:  cpu time     16.3023: real time     16.3025


--------------------------------------------------------------------------------------------------------




--------------------------------------------------------------------------------------------------------


    WAVPRE:  cpu time      5.6415: real time      5.6415
    FEWALD:  cpu time      0.0001: real time      0.0001
    ORTHCH:  cpu time      0.2721: real time      0.2721
     LOOP+:  cpu time    112.5125: real time    112.5146


--------------------------------------- Ionic step       14  -------------------------------------------




--------------------------------------- Iteration     14(   1)  ---------------------------------------


    POTLOK:  cpu time     16.3795: real time     16.3796
    SETDIJ:  cpu time      0.0022: real time      0.0022
     EDDAV:  cpu time      7.6676: real time      7.6677
       DOS:  cpu time      0.0001: real time      0.0001
    CHARGE:  cpu time      2.0870: real time      2.0871
    MIXING:  cpu time      0.6976: real time      0.6976
    --------------------------------------------
      LOOP:  cpu time     26.8341: real time     26.8342

 eigenvalue-minimisations  :    16
 total energy-change (2. order) :-0.7937990E-07  (-0.9898278E-06)
 number of electron       8.0000000 magnetization 
 augmentation part        0.6904773 magnetization 

 Broyden mixing:
  rms(total) = 0.78951E-04    rms(broyden)= 0.78949E-04
  rms(prec ) = 0.82391E-04
  weight for this iteration     100.00

 Free energy of the ion-electron system (eV)
  ---------------------------------------------------
  alpha Z        PSCENC =         0.02803141
  Ewald energy   TEWEN  =       121.87504840
  -Hartree energ DENC   =      -515.75556105
  -exchange      EXHF   =         0.00000000
  -V(xc)+E(xc)   XCENC  =        34.02840735
  PAW double counting   =       544.68498167     -546.76577274
  entropy T*S    EENTRO =        -0.00000000
  eigenvalues    EBANDS =      -109.68423099
  atomic energy  EATOM  =       457.35504338
  Solvation  Ediel_sol  =         0.00000000
  ---------------------------------------------------
  free energy    TOTEN  =       -14.23405258 eV

  energy without entropy =      -14.23405258  energy(sigma->0) =      -14.23405258


--------------------------------------------------------------------------------------------------------




--------------------------------------- Iteration     14(   2)  ---------------------------------------


    POTLOK:  cpu time     16.2858: real time     16.2858
    SETDIJ:  cpu time      0.0021: real time      0.0021
     EDDAV:  cpu time     10.2531: real time     10.2532
       DOS:  cpu time      0.0001: real time      0.0001
    --------------------------------------------
      LOOP:  cpu time     26.5411: real time     26.5412

 eigenvalue-minimisations  :    24
 total energy-change (2. order) :-0.1283740E-07  (-0.1630880E-07)
 number of electron       8.0000000 magnetization 
 augmentation part        0.6904773 magnetization 

 Free energy of the ion-electron system (eV)
  ---------------------------------------------------
  alpha Z        PSCENC =         0.02803141
  Ewald energy   TEWEN  =       121.87504840
  -Hartree energ DENC   =      -515.75690652
  -exchange      EXHF   =         0.00000000
  -V(xc)+E(xc)   XCENC  =        34.02848593
  PAW double counting   =       544.68951205     -546.77032983
  entropy T*S    EENTRO =        -0.00000000
  eigenvalues    EBANDS =      -109.68293742
  atomic energy  EATOM  =       457.35504338
  Solvation  Ediel_sol  =         0.00000000
  ---------------------------------------------------
  free energy    TOTEN  =       -14.23405259 eV

  energy without entropy =      -14.23405259  energy(sigma->0) =      -14.23405259


--------------------------------------------------------------------------------------------------------




 average (electrostatic) potential at core
  the test charge radii are     0.5201  0.7215
  (the norm of the test charge is              1.0000)
       1 -44.7123       2 -44.7125       3 -80.5683
 
 
 
 E-fermi :  -6.2619     XC(G=0):  -0.0790     alpha+bet : -0.0163

 Fermi energy:        -6.2619299996

 k-point     1 :       0.0000    0.0000    0.0000
  band No.  band energies     occupation 
      1     -25.2926      2.00000
      2     -13.0951      2.00000
      3      -9.2584      2.00000
      4      -7.1955      2.00000
      5      -0.9852      0.00000
      6       0.0347      0.00000
      7       0.2397      0.00000
      8       0.3270      0.00000


--------------------------------------------------------------------------------------------------------


 soft charge-density along one line, spin component           1
         0         1         2         3         4         5         6         7         8         9
 total charge-density along one line
 
 pseudopotential strength for first ion, spin component:           1
 -2.384  -4.117  -0.000   0.003  -0.000
 -4.117  -7.023  -0.000   0.009  -0.000
 -0.000  -0.000  -0.324  -0.000   0.000
  0.003   0.009  -0.000  -0.314  -0.000
 -0.000  -0.000   0.000  -0.000  -0.323
 total augmentation occupancy for first ion, spin component:           1
  3.738  -0.783   0.000  -0.720   0.018
 -0.783   0.216   0.000   0.146  -0.009
  0.000   0.000   0.041   0.000   0.000
 -0.720   0.146   0.000   0.139  -0.005
  0.018  -0.009   0.000  -0.005   0.027


------------------------ aborting loop because EDIFF is reached ----------------------------------------


    CHARGE:  cpu time      2.0748: real time      2.0748
    FORLOC:  cpu time      1.4345: real time      1.4345
    FORNL :  cpu time      0.6546: real time      0.6546
    STRESS:  cpu time      6.7415: real time      6.7416
    FORCOR:  cpu time     17.5427: real time     17.5429
    FORHAR:  cpu time      5.0285: real time      5.0286
    MIXING:  cpu time      0.7458: real time      0.7458
    OFIELD:  cpu time      0.0000: real time      0.0000

  FORCE on cell =-STRESS in cart. coord.  units (eV):
  Direction    XX          YY          ZZ          XY          YZ          ZX
  --------------------------------------------------------------------------------------
  Alpha Z     0.02803     0.02803     0.02803
  Ewald      62.99266   -21.81647    80.69889     0.00364     0.00029    25.44004
  Hartree   175.95640   160.81521   178.98497     0.00025    -0.00015     4.34249
  E(xc)     -36.06549   -36.42752   -36.00035    -0.00000     0.00000     0.09376
  Local    -322.45980  -248.18773  -338.22196    -0.00125    -0.00092   -22.62459
  n-local   -30.68611   -30.79213   -30.41954     0.00052    -0.00042     0.38356
  augment     6.41429     8.15663     6.09747    -0.00001     0.00002    -0.45611
  Kinetic   143.81822   168.22345   138.83106    -0.00151     0.00018    -7.17934
  Fock        0.00000     0.00000     0.00000     0.00000     0.00000     0.00000
  -------------------------------------------------------------------------------------
  Total      -0.00179    -0.00053    -0.00143     0.00000     0.00000    -0.00019
  in kB      -0.00036    -0.00011    -0.00029     0.00000     0.00000    -0.00004
  external pressure =       -0.00 kB  Pullay stress =        0.00 kB


 VOLUME and BASIS-vectors are now :
 -----------------------------------------------------------------------------
  energy-cutoff  :     1500.00
  volume of cell :     8000.00
      direct lattice vectors                 reciprocal lattice vectors
    20.000000000  0.000000000  0.000000000     0.050000000  0.000000000  0.000000000
     0.000000000 20.000000000  0.000000000     0.000000000  0.050000000  0.000000000
     0.000000000  0.000000000 20.000000000     0.000000000  0.000000000  0.050000000

  length of vectors
    20.000000000 20.000000000 20.000000000     0.050000000  0.050000000  0.050000000


 FORCES acting on ions
    electron-ion (+dipol)            ewald-force                    non-local-force                 convergence-correction
 -----------------------------------------------------------------------------------------------
   0.130E+00 -.855E-02 -.880E+02   -.178E+00 -.822E-03 0.963E+02   0.480E-01 0.000E+00 -.832E+01   0.104E-03 0.304E-07 -.742E-04
   0.832E+02 -.455E-02 0.288E+02   -.911E+02 -.388E-02 -.314E+02   0.788E+01 0.000E+00 0.269E+01   0.795E-04 0.526E-07 -.584E-04
   -.513E+02 -.117E+00 0.365E+02   0.912E+02 0.471E-02 -.649E+02   -.400E+02 -.434E-18 0.284E+02   0.174E-02 -.200E-06 -.543E-03
 -----------------------------------------------------------------------------------------------
   0.320E+02 -.130E+00 -.228E+02   0.000E+00 -.607E-17 0.142E-13   -.320E+02 -.434E-18 0.228E+02   0.192E-02 -.117E-06 -.676E-03
 
 
 POSITION                                       TOTAL-FORCE (eV/Angst)
 -----------------------------------------------------------------------------------
      5.09121      0.00007      1.41862         0.000141      0.000000     -0.000416
      4.20047      0.00004      0.16631        -0.000035     -0.000000      0.000003
      5.13058      0.00008      0.44768        -0.000106     -0.000000      0.000413
 -----------------------------------------------------------------------------------
    total drift:                               -0.000101     -0.130286     -0.000170


--------------------------------------------------------------------------------------------------------



  FREE ENERGIE OF THE ION-ELECTRON SYSTEM (eV)
  ---------------------------------------------------
  free  energy   TOTEN  =       -14.23405259 eV

  energy  without entropy=      -14.23405259  energy(sigma->0) =      -14.23405259
 
 d Force = 0.6032418E-07[ 0.109E-07, 0.110E-06]  d Energy = 0.7870995E-07-0.184E-07
 d Force =-0.2385133E-02[-0.238E-02,-0.239E-02]  d Ewald  =-0.2385133E-02-0.112E-10


--------------------------------------------------------------------------------------------------------


    POTLOK:  cpu time     16.2667: real time     16.2667


--------------------------------------------------------------------------------------------------------


 Conjugate gradient step on ions:
 trial-energy change:   -0.000000  1 .order   -0.000000   -0.000000   -0.000000
  (g-gl).g = 0.257E-06      g.g   = 0.249E-06  gl.gl    = 0.277E-06
 g(Force)  = 0.249E-06   g(Stress)= 0.000E+00 ortho     =-0.837E-08
 gamma     =   0.92655
 trial     =   0.45554
 opt step  =   0.50581  (harmonic =   0.50581) maximal distance =0.00004201
 next E    =   -14.234053   (d E  =  -0.00000)


--------------------------------------------------------------------------------------------------------


  
 reached required accuracy - stopping structural energy minimisation
 writing wavefunctions
     LOOP+:  cpu time    104.1042: real time    104.1752
    4ORBIT:  cpu time      0.0000: real time      0.0000

 total amount of memory used by VASP MPI-rank0  5753272. kBytes
=======================================================================

   base      :      30000. kBytes
   nonl-proj :     185880. kBytes
   fftplans  :    1935800. kBytes
   grid      :    3466395. kBytes
   one-center:          9. kBytes
   wavefun   :     135188. kBytes
 
  
  
 General timing and accounting informations for this job:
 ========================================================
  
                  Total CPU time used (sec):     3726.900
                            User time (sec):     3511.284
                          System time (sec):      215.616
                         Elapsed time (sec):     3729.317
  
                   Maximum memory used (kb):     9032612.
                   Average memory used (kb):          N/A
  
                          Minor page faults:    212966334
                          Major page faults:            0
                 Voluntary context switches:          563
