 vasp.6.4.1 05Apr23 (build Jun 06 2023 10:26:43) complex                        
  
 executed on             LinuxIFC date 2023.06.30  10:22:14
 running    1 mpi-ranks, on    1 nodes
 distrk:  each k-point on    1 cores,    1 groups
 distr:  one band on NCORE=   1 cores,    1 groups


--------------------------------------------------------------------------------------------------------


 INCAR:
   SYSTEM = BN
   GGA = PE
   ISMEAR = 0
   EDIFF = 1.0E-6
   EDIFFG = -1.0E-3
   KPAR = 1
   NCSHMEM = -1
   PREC = Normal
   NCORE = 4
   IBRION = 2
   POTIM = 0.5
   NSW = 101
   ENCUT = 800

 POTCAR:    PAW_PBE H 15Jun2001                   
 POTCAR:    PAW_PBE O 08Apr2002                   
 -----------------------------------------------------------------------------
|                                                                             |
|           W    W    AA    RRRRR   N    N  II  N    N   GGGG   !!!           |
|           W    W   A  A   R    R  NN   N  II  NN   N  G    G  !!!           |
|           W    W  A    A  R    R  N N  N  II  N N  N  G       !!!           |
|           W WW W  AAAAAA  RRRRR   N  N N  II  N  N N  G  GGG   !            |
|           WW  WW  A    A  R   R   N   NN  II  N   NN  G    G                |
|           W    W  A    A  R    R  N    N  II  N    N   GGGG   !!!           |
|                                                                             |
|     The value NCORE = 4 specified in the INCAR file was overwritten,        |
|     because it was not compatible with the 1 processes available:           |
|     NCORE = 1                                                               |
|     was used instead, please check that this makes sense for your           |
|     machine.                                                                |
|                                                                             |
 -----------------------------------------------------------------------------

 POTCAR:    PAW_PBE H 15Jun2001                   
   VRHFIN =H: ultrasoft test                                                                        
   LEXCH  = PE                                                                                      
   EATOM  =    12.4884 eV,    0.9179 Ry                                                             
                                                                                                    
   TITEL  = PAW_PBE H 15Jun2001                                                                     
   LULTRA =        F    use ultrasoft PP ?                                                          
   IUNSCR =        0    unscreen: 0-lin 1-nonlin 2-no                                               
   RPACOR =    0.000    partial core radius                                                         
   POMASS =    1.000; ZVAL   =    1.000    mass and valenz                                          
   RCORE  =    1.100    outmost cutoff radius                                                       
   RWIGS  =    0.700; RWIGS  =    0.370    wigner-seitz radius (au A)                               
   ENMAX  =  250.000; ENMIN  =  200.000 eV                                                          
   RCLOC  =    0.701    cutoff for local pot                                                        
   LCOR   =        T    correct aug charges                                                         
   LPAW   =        T    paw PP                                                                      
   EAUG   =  400.000                                                                                
   RMAX   =    1.123    core radius for proj-oper                                                   
   RAUG   =    1.200    factor for augmentation sphere                                              
   RDEP   =    1.112    radius for radial grids                                                     
   RDEPT  =    0.926    core radius for aug-charge                                                  
                                                                                                    
   Atomic configuration                                                                             
    2 entries                                                                                       
     n  l   j            E        occ.                                                              
     1  0  0.50        -6.4927   1.0000                                                             
     2  1  0.50        -3.4015   0.0000                                                             
   Description                                                                                      
     l       E           TYP  RCUT    TYP  RCUT                                                     
     0     -6.4927494     23  1.100                                                                 
     0      6.8029130     23  1.100                                                                 
     1     -4.0817478     23  1.100                                                                 
  local pseudopotential read in
  atomic valenz-charges read in
  non local Contribution for L=           0  read in
    real space projection operators read in
  non local Contribution for L=           0  read in
    real space projection operators read in
  non local Contribution for L=           1  read in
    real space projection operators read in
    PAW grid and wavefunctions read in
 
   number of l-projection  operators is LMAX  =           3
   number of lm-projection operators is LMMAX =           5
 
 POTCAR:    PAW_PBE O 08Apr2002                   
   VRHFIN =O: s2p4                                                                                  
   LEXCH  = PE                                                                                      
   EATOM  =   432.3788 eV,   31.7789 Ry                                                             
                                                                                                    
   TITEL  = PAW_PBE O 08Apr2002                                                                     
   LULTRA =        F    use ultrasoft PP ?                                                          
   IUNSCR =        1    unscreen: 0-lin 1-nonlin 2-no                                               
   RPACOR =    1.200    partial core radius                                                         
   POMASS =   16.000; ZVAL   =    6.000    mass and valenz                                          
   RCORE  =    1.520    outmost cutoff radius                                                       
   RWIGS  =    1.550; RWIGS  =    0.820    wigner-seitz radius (au A)                               
   ENMAX  =  400.000; ENMIN  =  300.000 eV                                                          
   ICORE  =        2    local potential                                                             
   LCOR   =        T    correct aug charges                                                         
   LPAW   =        T    paw PP                                                                      
   EAUG   =  605.392                                                                                
   DEXC   =    0.000                                                                                
   RMAX   =    1.553    core radius for proj-oper                                                   
   RAUG   =    1.300    factor for augmentation sphere                                              
   RDEP   =    1.550    radius for radial grids                                                     
   RDEPT  =    1.329    core radius for aug-charge                                                  
                                                                                                    
   Atomic configuration                                                                             
    4 entries                                                                                       
     n  l   j            E        occ.                                                              
     1  0  0.50      -514.6923   2.0000                                                             
     2  0  0.50       -23.9615   2.0000                                                             
     2  1  0.50        -9.0305   4.0000                                                             
     3  2  1.50        -9.5241   0.0000                                                             
   Description                                                                                      
     l       E           TYP  RCUT    TYP  RCUT                                                     
     0    -23.9615318     23  1.200                                                                 
     0     -9.5240782     23  1.200                                                                 
     1     -9.0304911     23  1.520                                                                 
     1      8.1634956     23  1.520                                                                 
     2     -9.5240782      7  1.500                                                                 
  local pseudopotential read in
  partial core-charges read in
  partial kinetic energy density read in
  kinetic energy density of atom read in
  atomic valenz-charges read in
  non local Contribution for L=           0  read in
    real space projection operators read in
  non local Contribution for L=           0  read in
    real space projection operators read in
  non local Contribution for L=           1  read in
    real space projection operators read in
  non local Contribution for L=           1  read in
    real space projection operators read in
    PAW grid and wavefunctions read in
 
   number of l-projection  operators is LMAX  =           4
   number of lm-projection operators is LMMAX =           8
 
  PAW_PBE H 15Jun2001                   :
 energy of atom  1       EATOM=  -12.4884
 kinetic energy error for atom=    0.0002 (will be added to EATOM!!)
  PAW_PBE O 08Apr2002                   :
 energy of atom  2       EATOM= -432.3788
 kinetic energy error for atom=    0.0041 (will be added to EATOM!!)
 
 
 POSCAR: Water molecule
  positions in cartesian coordinates
  No initial velocities read in
 exchange correlation table for  LEXCH =        8
   RHO(1)=    0.500       N(1)  =     2000
   RHO(2)=  100.500       N(2)  =     4000
 


--------------------------------------------------------------------------------------------------------


 ion  position               nearest neighbor table
   1  0.255  0.000  0.072-   3 1.00
   2  0.209  0.000  0.007-   3 1.00
   3  0.257  0.000  0.022-   1 1.00   2 1.00
 
  LATTYP: Found a simple cubic cell.
 ALAT       =    20.0000000000
  
  Lattice vectors:
  
 A1 = (  20.0000000000,   0.0000000000,   0.0000000000)
 A2 = (   0.0000000000,  20.0000000000,   0.0000000000)
 A3 = (   0.0000000000,   0.0000000000,  20.0000000000)


Analysis of symmetry for initial positions (statically):
=====================================================================
 Subroutine PRICEL returns:
 Original cell was already a primitive cell.
 

 Routine SETGRP: Setting up the symmetry group for a 
 simple cubic supercell.


 Subroutine GETGRP returns: Found  2 space group operations
 (whereof  2 operations were pure point group operations)
 out of a pool of 48 trial point group operations.


The static configuration has the point symmetry C_1h.


Analysis of symmetry for dynamics (positions and initial velocities):
=====================================================================
 Subroutine PRICEL returns:
 Original cell was already a primitive cell.
 

 Routine SETGRP: Setting up the symmetry group for a 
 simple cubic supercell.


 Subroutine GETGRP returns: Found  2 space group operations
 (whereof  2 operations were pure point group operations)
 out of a pool of 48 trial point group operations.


The dynamic configuration has the point symmetry C_1h.


 Subroutine INISYM returns: Found  2 space group operations
 (whereof  2 operations are pure point group operations),
 and found     1 'primitive' translations


----------------------------------------------------------------------------------------

                                     Primitive cell                                     

  volume of cell :    8000.0000

  direct lattice vectors                    reciprocal lattice vectors
    20.000000000  0.000000000  0.000000000     0.050000000  0.000000000  0.000000000
     0.000000000 20.000000000  0.000000000     0.000000000  0.050000000  0.000000000
     0.000000000  0.000000000 20.000000000     0.000000000  0.000000000  0.050000000

  length of vectors
    20.000000000 20.000000000 20.000000000     0.050000000  0.050000000  0.050000000

  position of ions in fractional coordinates (direct lattice)
     0.255395500  0.000003500  0.072266000
     0.209022500  0.000002000  0.007084000
     0.256695000  0.000004000  0.022280500

  ion indices of the primitive-cell ions
   primitive index   ion index
                 1           1
                 2           2
                 3           3

----------------------------------------------------------------------------------------

 
 
 KPOINTS: Automatically generated mesh            

Automatic generation of k-mesh.
 Grid dimensions read from file:
 generate k-points for:    1    1    1

 Generating k-lattice:

  Cartesian coordinates                     Fractional coordinates (reciprocal lattice)
     0.050000000  0.000000000  0.000000000     1.000000000  0.000000000  0.000000000
     0.000000000  0.050000000  0.000000000     0.000000000  1.000000000  0.000000000
     0.000000000  0.000000000  0.050000000     0.000000000  0.000000000  1.000000000

  Length of vectors
     0.050000000  0.050000000  0.050000000

  Shift w.r.t. Gamma in fractional coordinates (k-lattice)
     0.000000000  0.000000000  0.000000000

 
 Subroutine IBZKPT returns following result:
 ===========================================
 
 Found      1 irreducible k-points:
 
 Following reciprocal coordinates:
            Coordinates               Weight
  0.000000  0.000000  0.000000      1.000000
 
 Following cartesian coordinates:
            Coordinates               Weight
  0.000000  0.000000  0.000000      1.000000
 


--------------------------------------------------------------------------------------------------------




 Dimension of arrays:
   k-points           NKPTS =      1   k-points in BZ     NKDIM =      1   number of bands    NBANDS=      8
   number of dos      NEDOS =    301   number of ions     NIONS =      3
   non local maximal  LDIM  =      4   non local SUM 2l+1 LMDIM =      8
   total plane-waves  NPLWV = ******
   max r-space proj   IRMAX =      1   max aug-charges    IRDMAX=   4649
   dimension x,y,z NGX =   140 NGY =  140 NGZ =  140
   dimension x,y,z NGXF=   280 NGYF=  280 NGZF=  280
   support grid    NGXF=   280 NGYF=  280 NGZF=  280
   ions per type =               2   1
   NGX,Y,Z   is equivalent  to a cutoff of  11.64, 11.64, 11.64 a.u.
   NGXF,Y,Z  is equivalent  to a cutoff of  23.27, 23.27, 23.27 a.u.

 SYSTEM =  BN                                      
 POSCAR =  Water molecule                          

 Startparameter for this run:
   NWRITE =      2    write-flag & timer
   PREC   = normal    normal or accurate (medium, high low for compatibility)
   ISTART =      0    job   : 0-new  1-cont  2-samecut
   ICHARG =      2    charge: 1-file 2-atom 10-const
   ISPIN  =      1    spin polarized calculation?
   LNONCOLLINEAR =      F non collinear calculations
   LSORBIT =      F    spin-orbit coupling
   INIWAV =      1    electr: 0-lowe 1-rand  2-diag
   LASPH  =      F    aspherical Exc in radial PAW
 Electronic Relaxation 1
   ENCUT  =  800.0 eV  58.80 Ry    7.67 a.u.  46.12 46.12 46.12*2*pi/ulx,y,z
   ENINI  =  800.0     initial cutoff
   ENAUG  =  605.4 eV  augmentation charge cutoff
   NELM   =     60;   NELMIN=  2; NELMDL= -5     # of ELM steps 
   EDIFF  = 0.1E-05   stopping-criterion for ELM
   LREAL  =      F    real-space projection
   NLSPLINE    = F    spline interpolate recip. space projectors
   LCOMPAT=      F    compatible to vasp.4.4
   GGA_COMPAT  = T    GGA compatible to vasp.4.4-vasp.4.6
   LMAXPAW     = -100 max onsite density
   LMAXMIX     =    2 max onsite mixed and CHGCAR
   VOSKOWN=      0    Vosko Wilk Nusair interpolation
   ROPT   =    0.00000   0.00000
 Ionic relaxation
   EDIFFG = -.1E-02   stopping-criterion for IOM
   NSW    =    101    number of steps for IOM
   NBLOCK =      1;   KBLOCK =    101    inner block; outer block 
   IBRION =      2    ionic relax: 0-MD 1-quasi-New 2-CG
   NFREE  =      1    steps in history (QN), initial steepest desc. (CG)
   ISIF   =      2    stress and relaxation
   IWAVPR =     11    prediction:  0-non 1-charg 2-wave 3-comb
   ISYM   =      2    0-nonsym 1-usesym 2-fastsym
   LCORR  =      T    Harris-Foulkes like correction to forces

   POTIM  = 0.5000    time-step for ionic-motion
   TEIN   =    0.0    initial temperature
   TEBEG  =    0.0;   TEEND  =   0.0 temperature during run
   SMASS  =  -3.00    Nose mass-parameter (am)
   estimated Nose-frequenzy (Omega)   =  0.10E-29 period in steps = 0.13E+47 mass=  -0.914E-26a.u.
   SCALEE = 1.0000    scale energy and forces
   NPACO  =    256;   APACO  = 10.0  distance and # of slots for P.C.
   PSTRESS=    0.0 pullay stress

  Mass of Ions in am
   POMASS =   1.00 16.00
  Ionic Valenz
   ZVAL   =   1.00  6.00
  Atomic Wigner-Seitz radii
   RWIGS  =  -1.00 -1.00
  virtual crystal weights 
   VCA    =   1.00  1.00
   NELECT =       8.0000    total number of electrons
   NUPDOWN=      -1.0000    fix difference up-down

 DOS related values:
   EMIN   =  10.00;   EMAX   =-10.00  energy-range for DOS
   EFERMI =   0.00;   METHOD = LEGACY      
   ISMEAR =     0;   SIGMA  =   0.20  broadening in eV -4-tet -1-fermi 0-gaus

 Electronic relaxation 2 (details)
   IALGO  =     38    algorithm
   LDIAG  =      T    sub-space diagonalisation (order eigenvalues)
   LSUBROT=      F    optimize rotation matrix (better conditioning)
   TURBO    =      0    0=normal 1=particle mesh
   IRESTART =      0    0=no restart 2=restart with 2 vectors
   NREBOOT  =      0    no. of reboots
   NMIN     =      0    reboot dimension
   EREF     =   0.00    reference energy to select bands
   IMIX   =      4    mixing-type and parameters
     AMIX     =   0.40;   BMIX     =  1.00
     AMIX_MAG =   1.60;   BMIX_MAG =  1.00
     AMIN     =   0.10
     WC   =   100.;   INIMIX=   1;  MIXPRE=   1;  MAXMIX= -45

 Intra band minimization:
   WEIMIN = 0.0010     energy-eigenvalue tresh-hold
   EBREAK =  0.31E-07  absolut break condition
   DEPER  =   0.30     relativ break condition  

   TIME   =   0.40     timestep for ELM

  volume/ion in A,a.u.               =    2666.67     17995.55
  Fermi-wavevector in a.u.,A,eV,Ry     =   0.163710  0.309367  0.364649  0.026801
  Thomas-Fermi vector in A             =   0.862763
 
 Write flags
   LWAVE        =      T    write WAVECAR
   LDOWNSAMPLE  =      F    k-point downsampling of WAVECAR
   LCHARG       =      T    write CHGCAR
   LVTOT        =      F    write LOCPOT, total local potential
   LVHAR        =      F    write LOCPOT, Hartree potential only
   LELF         =      F    write electronic localiz. function (ELF)
   LORBIT       =      0    0 simple, 1 ext, 2 COOP (PROOUT), +10 PAW based schemes


 Dipole corrections
   LMONO  =      F    monopole corrections only (constant potential shift)
   LDIPOL =      F    correct potential (dipole corrections)
   IDIPOL =      0    1-x, 2-y, 3-z, 4-all directions 
   EPSILON=  1.0000000 bulk dielectric constant

 Exchange correlation treatment:
   GGA     =    PE    GGA type
   LEXCH   =     8    internal setting for exchange type
   LIBXC   =     F    Libxc                    
   VOSKOWN =     0    Vosko Wilk Nusair interpolation
   LHFCALC =     F    Hartree Fock is set to
   LHFONE  =     F    Hartree Fock one center treatment
   AEXX    =    0.0000 exact exchange contribution

 Linear response parameters
   LEPSILON=     F    determine dielectric tensor
   LRPA    =     F    only Hartree local field effects (RPA)
   LNABLA  =     F    use nabla operator in PAW spheres
   LVEL    =     F    velocity operator in full k-point grid
   CSHIFT  =0.1000    complex shift for real part using Kramers Kronig
   OMEGAMAX=  -1.0    maximum frequency
   DEG_THRESHOLD= 0.2000000E-02 threshold for treating states as degnerate
   RTIME   =   -0.100 relaxation time in fs
  (WPLASMAI=    0.000 imaginary part of plasma frequency in eV, 0.658/RTIME)
   DFIELD  = 0.0000000 0.0000000 0.0000000 field for delta impulse in time
 
  Optional k-point grid parameters
   LKPOINTS_OPT  =     F    use optional k-point grid
   KPOINTS_OPT_MODE=     1    mode for optional k-point grid
 
 Orbital magnetization related:
   ORBITALMAG=     F  switch on orbital magnetization
   LCHIMAG   =     F  perturbation theory with respect to B field
   DQ        =  0.001000  dq finite difference perturbation B field
   LLRAUG    =     F  two centre corrections for induced B field
   LBONE     =     F  B-component reconstruction in AE one-centre
   LVGVCALC  =     T  calculate vGv susceptibility
   LVGVAPPL  =     F  apply vGv susceptibility instead of pGv for G=0

 Random number generation:
   RANDOM_GENERATOR = DEFAULT
   PCG_SEED         = not used


--------------------------------------------------------------------------------------------------------


 conjugate gradient relaxation of ions
 charge density and potential will be updated during run
 non-spin polarized calculation
 Variant of blocked Davidson
 Davidson routine will perform the subspace rotation
 perform sub-space diagonalisation
    after iterative eigenvector-optimisation
 modified Broyden-mixing scheme, WC =      100.0
 initial mixing is a Kerker type mixing with AMIX =  0.4000 and BMIX =      1.0000
 Hartree-type preconditioning will be used
 using additional bands            4
 reciprocal scheme for non local part
 use partial core corrections
 calculate Harris-corrections to forces 
   (improved forces if not selfconsistent)
 use gradient corrections 
 use of overlap-Matrix (Vanderbilt PP)
 Gauss-broadening in eV      SIGMA  =   0.20


--------------------------------------------------------------------------------------------------------


  energy-cutoff  :      800.00
  volume of cell :     8000.00
      direct lattice vectors                 reciprocal lattice vectors
    20.000000000  0.000000000  0.000000000     0.050000000  0.000000000  0.000000000
     0.000000000 20.000000000  0.000000000     0.000000000  0.050000000  0.000000000
     0.000000000  0.000000000 20.000000000     0.000000000  0.000000000  0.050000000

  length of vectors
    20.000000000 20.000000000 20.000000000     0.050000000  0.050000000  0.050000000


 
 k-points in units of 2pi/SCALE and weight: Automatically generated mesh            
   0.00000000  0.00000000  0.00000000       1.000
 
 k-points in reciprocal lattice and weights: Automatically generated mesh            
   0.00000000  0.00000000  0.00000000       1.000
 
 position of ions in fractional coordinates (direct lattice) 
   0.25539550  0.00000350  0.07226600
   0.20902250  0.00000200  0.00708400
   0.25669500  0.00000400  0.02228050
 
 position of ions in cartesian coordinates  (Angst):
   5.10791000  0.00007000  1.44532000
   4.18045000  0.00004000  0.14168000
   5.13390000  0.00008000  0.44561000
 


--------------------------------------------------------------------------------------------------------


 k-point   1 :   0.0000 0.0000 0.0000  plane waves:  410861

 maximum and minimum number of plane-waves per node :    410861   410861

 maximum number of plane-waves:    410861
 maximum index in each direction: 
   IXMAX=   46   IYMAX=   46   IZMAX=   46
   IXMIN=  -46   IYMIN=  -46   IZMIN=  -46


 serial   3D FFT for wavefunctions
 parallel 3D FFT for charge:
    minimum data exchange during FFTs selected (reduces bandwidth)


 total amount of memory used by VASP MPI-rank0  2252577. kBytes
=======================================================================

   base      :      30000. kBytes
   nonl-proj :      72311. kBytes
   fftplans  :     752008. kBytes
   grid      :    1345657. kBytes
   one-center:          9. kBytes
   wavefun   :      52592. kBytes
 
     INWAV:  cpu time      0.0000: real time      0.0000
 Broyden mixing: mesh for mixing (old mesh)
   NGX = 93   NGY = 93   NGZ = 93
  (NGX  =280   NGY  =280   NGZ  =280)
  gives a total of 804357 points

 initial charge density was supplied:
 charge density of overlapping atoms calculated
 number of electron       8.0000000 magnetization 
 keeping initial charge density in first step


--------------------------------------------------------------------------------------------------------


 Maximum index for augmentation-charges         4307 (set IRDMAX)


--------------------------------------------------------------------------------------------------------


 First call to EWALD:  gamma=   0.089
 Maximum number of real-space cells 3x 3x 3
 Maximum number of reciprocal cells 3x 3x 3

    FEWALD:  cpu time      0.0007: real time      0.0007


--------------------------------------- Ionic step        1  -------------------------------------------




--------------------------------------- Iteration      1(   1)  ---------------------------------------


    POTLOK:  cpu time      6.4591: real time      6.4591
    SETDIJ:  cpu time      0.0018: real time      0.0018
     EDDAV:  cpu time      3.2651: real time      3.2651
       DOS:  cpu time      0.0001: real time      0.0001
    --------------------------------------------
      LOOP:  cpu time      9.7260: real time      9.7261

 eigenvalue-minimisations  :    24
 total energy-change (2. order) : 0.7528426E+02  (-0.1284852E+03)
 number of electron       8.0000000 magnetization 
 augmentation part        8.0000000 magnetization 

 Free energy of the ion-electron system (eV)
  ---------------------------------------------------
  alpha Z        PSCENC =         0.02803141
  Ewald energy   TEWEN  =       116.41630449
  -Hartree energ DENC   =      -478.01139058
  -exchange      EXHF   =         0.00000000
  -V(xc)+E(xc)   XCENC  =        32.06733069
  PAW double counting   =       350.81753176     -352.63395800
  entropy T*S    EENTRO =        -0.22290556
  eigenvalues    EBANDS =       -50.52771228
  atomic energy  EATOM  =       457.35103127
  Solvation  Ediel_sol  =         0.00000000
  ---------------------------------------------------
  free energy    TOTEN  =        75.28426320 eV

  energy without entropy =       75.50716876  energy(sigma->0) =       75.39571598


--------------------------------------------------------------------------------------------------------




--------------------------------------- Iteration      1(   2)  ---------------------------------------


     EDDAV:  cpu time      4.0081: real time      4.0081
       DOS:  cpu time      0.0001: real time      0.0001
    --------------------------------------------
      LOOP:  cpu time      4.0081: real time      4.0081

 eigenvalue-minimisations  :    32
 total energy-change (2. order) :-0.6086206E+02  (-0.5965323E+02)
 number of electron       8.0000000 magnetization 
 augmentation part        8.0000000 magnetization 

 Free energy of the ion-electron system (eV)
  ---------------------------------------------------
  alpha Z        PSCENC =         0.02803141
  Ewald energy   TEWEN  =       116.41630449
  -Hartree energ DENC   =      -478.01139058
  -exchange      EXHF   =         0.00000000
  -V(xc)+E(xc)   XCENC  =        32.06733069
  PAW double counting   =       350.81753176     -352.63395800
  entropy T*S    EENTRO =        -0.00000000
  eigenvalues    EBANDS =      -111.61268189
  atomic energy  EATOM  =       457.35103127
  Solvation  Ediel_sol  =         0.00000000
  ---------------------------------------------------
  free energy    TOTEN  =        14.42219915 eV

  energy without entropy =       14.42219915  energy(sigma->0) =       14.42219915


--------------------------------------------------------------------------------------------------------




--------------------------------------- Iteration      1(   3)  ---------------------------------------


     EDDAV:  cpu time      2.3666: real time      2.3666
       DOS:  cpu time      0.0001: real time      0.0001
    --------------------------------------------
      LOOP:  cpu time      2.3667: real time      2.3667

 eigenvalue-minimisations  :    16
 total energy-change (2. order) :-0.2731632E+02  (-0.2731632E+02)
 number of electron       8.0000000 magnetization 
 augmentation part        8.0000000 magnetization 

 Free energy of the ion-electron system (eV)
  ---------------------------------------------------
  alpha Z        PSCENC =         0.02803141
  Ewald energy   TEWEN  =       116.41630449
  -Hartree energ DENC   =      -478.01139058
  -exchange      EXHF   =         0.00000000
  -V(xc)+E(xc)   XCENC  =        32.06733069
  PAW double counting   =       350.81753176     -352.63395800
  entropy T*S    EENTRO =        -0.00000000
  eigenvalues    EBANDS =      -138.92900273
  atomic energy  EATOM  =       457.35103127
  Solvation  Ediel_sol  =         0.00000000
  ---------------------------------------------------
  free energy    TOTEN  =       -12.89412169 eV

  energy without entropy =      -12.89412169  energy(sigma->0) =      -12.89412169


--------------------------------------------------------------------------------------------------------




--------------------------------------- Iteration      1(   4)  ---------------------------------------


     EDDAV:  cpu time      2.3658: real time      2.3658
       DOS:  cpu time      0.0001: real time      0.0001
    --------------------------------------------
      LOOP:  cpu time      2.3659: real time      2.3659

 eigenvalue-minimisations  :    16
 total energy-change (2. order) :-0.3213705E+01  (-0.3213705E+01)
 number of electron       8.0000000 magnetization 
 augmentation part        8.0000000 magnetization 

 Free energy of the ion-electron system (eV)
  ---------------------------------------------------
  alpha Z        PSCENC =         0.02803141
  Ewald energy   TEWEN  =       116.41630449
  -Hartree energ DENC   =      -478.01139058
  -exchange      EXHF   =         0.00000000
  -V(xc)+E(xc)   XCENC  =        32.06733069
  PAW double counting   =       350.81753176     -352.63395800
  entropy T*S    EENTRO =        -0.00000000
  eigenvalues    EBANDS =      -142.14270731
  atomic energy  EATOM  =       457.35103127
  Solvation  Ediel_sol  =         0.00000000
  ---------------------------------------------------
  free energy    TOTEN  =       -16.10782627 eV

  energy without entropy =      -16.10782627  energy(sigma->0) =      -16.10782627


--------------------------------------------------------------------------------------------------------




--------------------------------------- Iteration      1(   5)  ---------------------------------------


     EDDAV:  cpu time      3.9991: real time      3.9991
       DOS:  cpu time      0.0001: real time      0.0001
    CHARGE:  cpu time      0.7662: real time      0.7662
    MIXING:  cpu time      0.2720: real time      0.2720
    --------------------------------------------
      LOOP:  cpu time      5.0374: real time      5.0374

 eigenvalue-minimisations  :    32
 total energy-change (2. order) :-0.3460318E-01  (-0.3460318E-01)
 number of electron       8.0000009 magnetization 
 augmentation part        0.8239856 magnetization 

 Broyden mixing:
  rms(total) = 0.77283E+00    rms(broyden)= 0.77281E+00
  rms(prec ) = 0.84980E+00
  weight for this iteration     100.00

 Free energy of the ion-electron system (eV)
  ---------------------------------------------------
  alpha Z        PSCENC =         0.02803141
  Ewald energy   TEWEN  =       116.41630449
  -Hartree energ DENC   =      -478.01139058
  -exchange      EXHF   =         0.00000000
  -V(xc)+E(xc)   XCENC  =        32.06733069
  PAW double counting   =       350.81753176     -352.63395800
  entropy T*S    EENTRO =        -0.00000000
  eigenvalues    EBANDS =      -142.17731049
  atomic energy  EATOM  =       457.35103127
  Solvation  Ediel_sol  =         0.00000000
  ---------------------------------------------------
  free energy    TOTEN  =       -16.14242946 eV

  energy without entropy =      -16.14242946  energy(sigma->0) =      -16.14242946


--------------------------------------------------------------------------------------------------------




--------------------------------------- Iteration      1(   6)  ---------------------------------------


    POTLOK:  cpu time      6.1053: real time      6.1053
    SETDIJ:  cpu time      0.0017: real time      0.0017
     EDDAV:  cpu time      3.1898: real time      3.1901
       DOS:  cpu time      0.0001: real time      0.0001
    CHARGE:  cpu time      0.7264: real time      0.7264
    MIXING:  cpu time      0.2863: real time      0.2863
    --------------------------------------------
      LOOP:  cpu time     10.3096: real time     10.3099

 eigenvalue-minimisations  :    24
 total energy-change (2. order) : 0.1774491E+01  (-0.9679090E+00)
 number of electron       8.0000008 magnetization 
 augmentation part        0.6834605 magnetization 

 Broyden mixing:
  rms(total) = 0.32865E+00    rms(broyden)= 0.32864E+00
  rms(prec ) = 0.34410E+00
  weight for this iteration     100.00

 eigenvalues of (default mixing * dielectric matrix)
  average eigenvalue GAMMA=   0.8856
  0.8856

 Free energy of the ion-electron system (eV)
  ---------------------------------------------------
  alpha Z        PSCENC =         0.02803141
  Ewald energy   TEWEN  =       116.41630449
  -Hartree energ DENC   =      -501.55183738
  -exchange      EXHF   =         0.00000000
  -V(xc)+E(xc)   XCENC  =        33.36371391
  PAW double counting   =       439.66486155     -441.82644950
  entropy T*S    EENTRO =        -0.00000000
  eigenvalues    EBANDS =      -117.81359451
  atomic energy  EATOM  =       457.35103127
  Solvation  Ediel_sol  =         0.00000000
  ---------------------------------------------------
  free energy    TOTEN  =       -14.36793877 eV

  energy without entropy =      -14.36793877  energy(sigma->0) =      -14.36793877


--------------------------------------------------------------------------------------------------------




--------------------------------------- Iteration      1(   7)  ---------------------------------------


    POTLOK:  cpu time      6.1153: real time      6.1152
    SETDIJ:  cpu time      0.0017: real time      0.0017
     EDDAV:  cpu time      3.1805: real time      3.1805
       DOS:  cpu time      0.0001: real time      0.0001
    CHARGE:  cpu time      0.7265: real time      0.7265
    MIXING:  cpu time      0.2996: real time      0.2996
    --------------------------------------------
      LOOP:  cpu time     10.3236: real time     10.3236

 eigenvalue-minimisations  :    24
 total energy-change (2. order) : 0.1020684E+00  (-0.3911554E-02)
 number of electron       8.0000008 magnetization 
 augmentation part        0.6843609 magnetization 

 Broyden mixing:
  rms(total) = 0.20402E+00    rms(broyden)= 0.20402E+00
  rms(prec ) = 0.21590E+00
  weight for this iteration     100.00

 eigenvalues of (default mixing * dielectric matrix)
  average eigenvalue GAMMA=   1.7058
  0.9930  2.4186

 Free energy of the ion-electron system (eV)
  ---------------------------------------------------
  alpha Z        PSCENC =         0.02803141
  Ewald energy   TEWEN  =       116.41630449
  -Hartree energ DENC   =      -504.09290243
  -exchange      EXHF   =         0.00000000
  -V(xc)+E(xc)   XCENC  =        33.49061559
  PAW double counting   =       475.14186174     -477.25961348
  entropy T*S    EENTRO =        -0.00000000
  eigenvalues    EBANDS =      -115.34119894
  atomic energy  EATOM  =       457.35103127
  Solvation  Ediel_sol  =         0.00000000
  ---------------------------------------------------
  free energy    TOTEN  =       -14.26587035 eV

  energy without entropy =      -14.26587035  energy(sigma->0) =      -14.26587035


--------------------------------------------------------------------------------------------------------




--------------------------------------- Iteration      1(   8)  ---------------------------------------


    POTLOK:  cpu time      6.1374: real time      6.1374
    SETDIJ:  cpu time      0.0017: real time      0.0017
     EDDAV:  cpu time      3.1777: real time      3.1777
       DOS:  cpu time      0.0001: real time      0.0001
    CHARGE:  cpu time      0.7254: real time      0.7254
    MIXING:  cpu time      0.3140: real time      0.3140
    --------------------------------------------
      LOOP:  cpu time     10.3563: real time     10.3563

 eigenvalue-minimisations  :    24
 total energy-change (2. order) : 0.9524183E-01  (-0.7955941E-02)
 number of electron       8.0000008 magnetization 
 augmentation part        0.6807025 magnetization 

 Broyden mixing:
  rms(total) = 0.20327E-01    rms(broyden)= 0.20326E-01
  rms(prec ) = 0.29136E-01
  weight for this iteration     100.00

 eigenvalues of (default mixing * dielectric matrix)
  average eigenvalue GAMMA=   1.5432
  2.3401  0.9662  1.3232

 Free energy of the ion-electron system (eV)
  ---------------------------------------------------
  alpha Z        PSCENC =         0.02803141
  Ewald energy   TEWEN  =       116.41630449
  -Hartree energ DENC   =      -509.70115591
  -exchange      EXHF   =         0.00000000
  -V(xc)+E(xc)   XCENC  =        33.79896767
  PAW double counting   =       538.27102214     -540.33407043
  entropy T*S    EENTRO =        -0.00000000
  eigenvalues    EBANDS =      -110.00075916
  atomic energy  EATOM  =       457.35103127
  Solvation  Ediel_sol  =         0.00000000
  ---------------------------------------------------
  free energy    TOTEN  =       -14.17062852 eV

  energy without entropy =      -14.17062852  energy(sigma->0) =      -14.17062852


--------------------------------------------------------------------------------------------------------




--------------------------------------- Iteration      1(   9)  ---------------------------------------


    POTLOK:  cpu time      6.1527: real time      6.1527
    SETDIJ:  cpu time      0.0017: real time      0.0017
     EDDAV:  cpu time      3.1774: real time      3.1774
       DOS:  cpu time      0.0001: real time      0.0001
    CHARGE:  cpu time      0.7272: real time      0.7272
    MIXING:  cpu time      0.3248: real time      0.3248
    --------------------------------------------
      LOOP:  cpu time     10.3839: real time     10.3839

 eigenvalue-minimisations  :    24
 total energy-change (2. order) :-0.3126070E-02  (-0.1693017E-03)
 number of electron       8.0000008 magnetization 
 augmentation part        0.6802382 magnetization 

 Broyden mixing:
  rms(total) = 0.11903E-01    rms(broyden)= 0.11903E-01
  rms(prec ) = 0.19361E-01
  weight for this iteration     100.00

 eigenvalues of (default mixing * dielectric matrix)
  average eigenvalue GAMMA=   1.8689
  0.9765  0.9765  2.5022  3.0205

 Free energy of the ion-electron system (eV)
  ---------------------------------------------------
  alpha Z        PSCENC =         0.02803141
  Ewald energy   TEWEN  =       116.41630449
  -Hartree energ DENC   =      -510.19122437
  -exchange      EXHF   =         0.00000000
  -V(xc)+E(xc)   XCENC  =        33.80446934
  PAW double counting   =       532.13831556     -534.19872240
  entropy T*S    EENTRO =        -0.00000000
  eigenvalues    EBANDS =      -109.52195988
  atomic energy  EATOM  =       457.35103127
  Solvation  Ediel_sol  =         0.00000000
  ---------------------------------------------------
  free energy    TOTEN  =       -14.17375459 eV

  energy without entropy =      -14.17375459  energy(sigma->0) =      -14.17375459


--------------------------------------------------------------------------------------------------------




--------------------------------------- Iteration      1(  10)  ---------------------------------------


    POTLOK:  cpu time      6.1748: real time      6.1749
    SETDIJ:  cpu time      0.0018: real time      0.0018
     EDDAV:  cpu time      2.3715: real time      2.3715
       DOS:  cpu time      0.0001: real time      0.0001
    CHARGE:  cpu time      0.7266: real time      0.7266
    MIXING:  cpu time      0.3382: real time      0.3382
    --------------------------------------------
      LOOP:  cpu time      9.6129: real time      9.6130

 eigenvalue-minimisations  :    16
 total energy-change (2. order) :-0.4148351E-02  (-0.3140181E-03)
 number of electron       8.0000008 magnetization 
 augmentation part        0.6801482 magnetization 

 Broyden mixing:
  rms(total) = 0.54828E-02    rms(broyden)= 0.54827E-02
  rms(prec ) = 0.94605E-02
  weight for this iteration     100.00

 eigenvalues of (default mixing * dielectric matrix)
  average eigenvalue GAMMA=   1.8517
  3.2161  0.9762  0.9762  2.2954  1.7946

 Free energy of the ion-electron system (eV)
  ---------------------------------------------------
  alpha Z        PSCENC =         0.02803141
  Ewald energy   TEWEN  =       116.41630449
  -Hartree energ DENC   =      -511.06624677
  -exchange      EXHF   =         0.00000000
  -V(xc)+E(xc)   XCENC  =        33.82311400
  PAW double counting   =       527.50282542     -529.55819431
  entropy T*S    EENTRO =        -0.00000000
  eigenvalues    EBANDS =      -108.67476845
  atomic energy  EATOM  =       457.35103127
  Solvation  Ediel_sol  =         0.00000000
  ---------------------------------------------------
  free energy    TOTEN  =       -14.17790294 eV

  energy without entropy =      -14.17790294  energy(sigma->0) =      -14.17790294


--------------------------------------------------------------------------------------------------------




--------------------------------------- Iteration      1(  11)  ---------------------------------------


    POTLOK:  cpu time      6.2060: real time      6.2060
    SETDIJ:  cpu time      0.0017: real time      0.0017
     EDDAV:  cpu time      3.1923: real time      3.1923
       DOS:  cpu time      0.0001: real time      0.0001
    CHARGE:  cpu time      0.7274: real time      0.7274
    MIXING:  cpu time      0.3510: real time      0.3510
    --------------------------------------------
      LOOP:  cpu time     10.4784: real time     10.4784

 eigenvalue-minimisations  :    24
 total energy-change (2. order) :-0.6429282E-02  (-0.2996496E-03)
 number of electron       8.0000008 magnetization 
 augmentation part        0.6782855 magnetization 

 Broyden mixing:
  rms(total) = 0.58471E-02    rms(broyden)= 0.58470E-02
  rms(prec ) = 0.75723E-02
  weight for this iteration     100.00

 eigenvalues of (default mixing * dielectric matrix)
  average eigenvalue GAMMA=   2.0618
  4.3695  2.7794  2.3664  1.0395  0.9079  0.9079

 Free energy of the ion-electron system (eV)
  ---------------------------------------------------
  alpha Z        PSCENC =         0.02803141
  Ewald energy   TEWEN  =       116.41630449
  -Hartree energ DENC   =      -511.54111118
  -exchange      EXHF   =         0.00000000
  -V(xc)+E(xc)   XCENC  =        33.83361228
  PAW double counting   =       529.52449567     -531.58300955
  entropy T*S    EENTRO =        -0.00000000
  eigenvalues    EBANDS =      -108.21368662
  atomic energy  EATOM  =       457.35103127
  Solvation  Ediel_sol  =         0.00000000
  ---------------------------------------------------
  free energy    TOTEN  =       -14.18433222 eV

  energy without entropy =      -14.18433222  energy(sigma->0) =      -14.18433222


--------------------------------------------------------------------------------------------------------




--------------------------------------- Iteration      1(  12)  ---------------------------------------


    POTLOK:  cpu time      6.2320: real time      6.2320
    SETDIJ:  cpu time      0.0017: real time      0.0017
     EDDAV:  cpu time      3.1792: real time      3.1792
       DOS:  cpu time      0.0001: real time      0.0001
    CHARGE:  cpu time      0.7267: real time      0.7267
    MIXING:  cpu time      0.3733: real time      0.3733
    --------------------------------------------
      LOOP:  cpu time     10.5130: real time     10.5131

 eigenvalue-minimisations  :    24
 total energy-change (2. order) :-0.2297838E-02  (-0.8856970E-04)
 number of electron       8.0000008 magnetization 
 augmentation part        0.6792069 magnetization 

 Broyden mixing:
  rms(total) = 0.20163E-02    rms(broyden)= 0.20163E-02
  rms(prec ) = 0.33164E-02
  weight for this iteration     100.00

 eigenvalues of (default mixing * dielectric matrix)
  average eigenvalue GAMMA=   2.1242
  4.7535  2.8299  2.6726  1.5289  0.9536  0.9536  1.1772

 Free energy of the ion-electron system (eV)
  ---------------------------------------------------
  alpha Z        PSCENC =         0.02803141
  Ewald energy   TEWEN  =       116.41630449
  -Hartree energ DENC   =      -511.49373721
  -exchange      EXHF   =         0.00000000
  -V(xc)+E(xc)   XCENC  =        33.82184459
  PAW double counting   =       528.50002824     -530.55593271
  entropy T*S    EENTRO =        -0.00000000
  eigenvalues    EBANDS =      -108.25420013
  atomic energy  EATOM  =       457.35103127
  Solvation  Ediel_sol  =         0.00000000
  ---------------------------------------------------
  free energy    TOTEN  =       -14.18663006 eV

  energy without entropy =      -14.18663006  energy(sigma->0) =      -14.18663006


--------------------------------------------------------------------------------------------------------




--------------------------------------- Iteration      1(  13)  ---------------------------------------


    POTLOK:  cpu time      6.2602: real time      6.2602
    SETDIJ:  cpu time      0.0018: real time      0.0018
     EDDAV:  cpu time      2.3707: real time      2.3707
       DOS:  cpu time      0.0001: real time      0.0001
    CHARGE:  cpu time      0.7271: real time      0.7271
    MIXING:  cpu time      0.3921: real time      0.3921
    --------------------------------------------
      LOOP:  cpu time      9.7519: real time      9.7519

 eigenvalue-minimisations  :    16
 total energy-change (2. order) :-0.2374621E-02  (-0.3320883E-04)
 number of electron       8.0000008 magnetization 
 augmentation part        0.6788464 magnetization 

 Broyden mixing:
  rms(total) = 0.22117E-02    rms(broyden)= 0.22117E-02
  rms(prec ) = 0.27668E-02
  weight for this iteration     100.00

 eigenvalues of (default mixing * dielectric matrix)
  average eigenvalue GAMMA=   2.2586
  6.0052  3.4164  2.4081  2.4081  1.0026  1.0026  0.9129  0.9129

 Free energy of the ion-electron system (eV)
  ---------------------------------------------------
  alpha Z        PSCENC =         0.02803141
  Ewald energy   TEWEN  =       116.41630449
  -Hartree energ DENC   =      -511.58903509
  -exchange      EXHF   =         0.00000000
  -V(xc)+E(xc)   XCENC  =        33.82234913
  PAW double counting   =       529.05100421     -531.10686252
  entropy T*S    EENTRO =        -0.00000000
  eigenvalues    EBANDS =      -108.16182757
  atomic energy  EATOM  =       457.35103127
  Solvation  Ediel_sol  =         0.00000000
  ---------------------------------------------------
  free energy    TOTEN  =       -14.18900468 eV

  energy without entropy =      -14.18900468  energy(sigma->0) =      -14.18900468


--------------------------------------------------------------------------------------------------------




--------------------------------------- Iteration      1(  14)  ---------------------------------------


    POTLOK:  cpu time      6.2597: real time      6.2597
    SETDIJ:  cpu time      0.0017: real time      0.0017
     EDDAV:  cpu time      2.3703: real time      2.3703
       DOS:  cpu time      0.0001: real time      0.0001
    CHARGE:  cpu time      0.7265: real time      0.7265
    MIXING:  cpu time      0.4086: real time      0.4086
    --------------------------------------------
      LOOP:  cpu time      9.7668: real time      9.7669

 eigenvalue-minimisations  :    16
 total energy-change (2. order) :-0.9175883E-03  (-0.1678709E-04)
 number of electron       8.0000008 magnetization 
 augmentation part        0.6792775 magnetization 

 Broyden mixing:
  rms(total) = 0.81591E-03    rms(broyden)= 0.81586E-03
  rms(prec ) = 0.11712E-02
  weight for this iteration     100.00

 eigenvalues of (default mixing * dielectric matrix)
  average eigenvalue GAMMA=   2.3504
  6.8353  3.6174  2.7021  2.2963  1.6686  0.9267  0.9267  1.0904  1.0904

 Free energy of the ion-electron system (eV)
  ---------------------------------------------------
  alpha Z        PSCENC =         0.02803141
  Ewald energy   TEWEN  =       116.41630449
  -Hartree energ DENC   =      -511.49358137
  -exchange      EXHF   =         0.00000000
  -V(xc)+E(xc)   XCENC  =        33.81510027
  PAW double counting   =       528.43575084     -530.49009608
  entropy T*S    EENTRO =        -0.00000000
  eigenvalues    EBANDS =      -108.25246310
  atomic energy  EATOM  =       457.35103127
  Solvation  Ediel_sol  =         0.00000000
  ---------------------------------------------------
  free energy    TOTEN  =       -14.18992227 eV

  energy without entropy =      -14.18992227  energy(sigma->0) =      -14.18992227


--------------------------------------------------------------------------------------------------------




--------------------------------------- Iteration      1(  15)  ---------------------------------------


    POTLOK:  cpu time      6.2568: real time      6.2568
    SETDIJ:  cpu time      0.0017: real time      0.0017
     EDDAV:  cpu time      3.1780: real time      3.1780
       DOS:  cpu time      0.0001: real time      0.0001
    CHARGE:  cpu time      0.7262: real time      0.7262
    MIXING:  cpu time      0.4286: real time      0.4286
    --------------------------------------------
      LOOP:  cpu time     10.5914: real time     10.5914

 eigenvalue-minimisations  :    24
 total energy-change (2. order) :-0.5785270E-03  (-0.3766619E-05)
 number of electron       8.0000008 magnetization 
 augmentation part        0.6792814 magnetization 

 Broyden mixing:
  rms(total) = 0.63377E-03    rms(broyden)= 0.63377E-03
  rms(prec ) = 0.78671E-03
  weight for this iteration     100.00

 eigenvalues of (default mixing * dielectric matrix)
  average eigenvalue GAMMA=   2.4618
  7.7464  4.3386  2.8862  2.5113  2.0987  0.9311  0.9311  1.0643  1.0553  1.0553

 Free energy of the ion-electron system (eV)
  ---------------------------------------------------
  alpha Z        PSCENC =         0.02803141
  Ewald energy   TEWEN  =       116.41630449
  -Hartree energ DENC   =      -511.49048977
  -exchange      EXHF   =         0.00000000
  -V(xc)+E(xc)   XCENC  =        33.81426988
  PAW double counting   =       528.37940376     -530.43358272
  entropy T*S    EENTRO =        -0.00000000
  eigenvalues    EBANDS =      -108.25546911
  atomic energy  EATOM  =       457.35103127
  Solvation  Ediel_sol  =         0.00000000
  ---------------------------------------------------
  free energy    TOTEN  =       -14.19050080 eV

  energy without entropy =      -14.19050080  energy(sigma->0) =      -14.19050080


--------------------------------------------------------------------------------------------------------




--------------------------------------- Iteration      1(  16)  ---------------------------------------


    POTLOK:  cpu time      6.2296: real time      6.2296
    SETDIJ:  cpu time      0.0018: real time      0.0018
     EDDAV:  cpu time      2.3852: real time      2.3853
       DOS:  cpu time      0.0001: real time      0.0001
    CHARGE:  cpu time      0.7260: real time      0.7260
    MIXING:  cpu time      0.4479: real time      0.4479
    --------------------------------------------
      LOOP:  cpu time      9.7906: real time      9.7906

 eigenvalue-minimisations  :    16
 total energy-change (2. order) :-0.1945401E-03  (-0.1330532E-05)
 number of electron       8.0000008 magnetization 
 augmentation part        0.6791877 magnetization 

 Broyden mixing:
  rms(total) = 0.21543E-03    rms(broyden)= 0.21540E-03
  rms(prec ) = 0.33167E-03
  weight for this iteration     100.00

 eigenvalues of (default mixing * dielectric matrix)
  average eigenvalue GAMMA=   2.5611
  8.1222  4.8096  3.2024  2.6173  2.4166  2.0083  1.0773  1.0773  0.9919  0.9247
  0.9247

 Free energy of the ion-electron system (eV)
  ---------------------------------------------------
  alpha Z        PSCENC =         0.02803141
  Ewald energy   TEWEN  =       116.41630449
  -Hartree energ DENC   =      -511.49324819
  -exchange      EXHF   =         0.00000000
  -V(xc)+E(xc)   XCENC  =        33.81421575
  PAW double counting   =       528.29246631     -530.34688890
  entropy T*S    EENTRO =        -0.00000000
  eigenvalues    EBANDS =      -108.25260748
  atomic energy  EATOM  =       457.35103127
  Solvation  Ediel_sol  =         0.00000000
  ---------------------------------------------------
  free energy    TOTEN  =       -14.19069534 eV

  energy without entropy =      -14.19069534  energy(sigma->0) =      -14.19069534


--------------------------------------------------------------------------------------------------------




--------------------------------------- Iteration      1(  17)  ---------------------------------------


    POTLOK:  cpu time      6.1792: real time      6.1792
    SETDIJ:  cpu time      0.0017: real time      0.0017
     EDDAV:  cpu time      4.0004: real time      4.0004
       DOS:  cpu time      0.0001: real time      0.0001
    CHARGE:  cpu time      0.7271: real time      0.7271
    MIXING:  cpu time      0.4750: real time      0.4750
    --------------------------------------------
      LOOP:  cpu time     11.3834: real time     11.3835

 eigenvalue-minimisations  :    32
 total energy-change (2. order) :-0.1465202E-03  (-0.3826249E-06)
 number of electron       8.0000008 magnetization 
 augmentation part        0.6791957 magnetization 

 Broyden mixing:
  rms(total) = 0.72917E-04    rms(broyden)= 0.72904E-04
  rms(prec ) = 0.12675E-03
  weight for this iteration     100.00

 eigenvalues of (default mixing * dielectric matrix)
  average eigenvalue GAMMA=   2.5744
  8.5589  5.3871  3.5417  2.7749  2.4404  1.9342  1.3035  0.9282  0.9282  1.0563
  1.0563  0.9825

 Free energy of the ion-electron system (eV)
  ---------------------------------------------------
  alpha Z        PSCENC =         0.02803141
  Ewald energy   TEWEN  =       116.41630449
  -Hartree energ DENC   =      -511.49943614
  -exchange      EXHF   =         0.00000000
  -V(xc)+E(xc)   XCENC  =        33.81426178
  PAW double counting   =       528.39387326     -530.44829792
  entropy T*S    EENTRO =        -0.00000000
  eigenvalues    EBANDS =      -108.24661001
  atomic energy  EATOM  =       457.35103127
  Solvation  Ediel_sol  =         0.00000000
  ---------------------------------------------------
  free energy    TOTEN  =       -14.19084186 eV

  energy without entropy =      -14.19084186  energy(sigma->0) =      -14.19084186


--------------------------------------------------------------------------------------------------------




--------------------------------------- Iteration      1(  18)  ---------------------------------------


    POTLOK:  cpu time      6.1745: real time      6.1745
    SETDIJ:  cpu time      0.0017: real time      0.0017
     EDDAV:  cpu time      4.0011: real time      4.0011
       DOS:  cpu time      0.0001: real time      0.0001
    CHARGE:  cpu time      0.7255: real time      0.7255
    MIXING:  cpu time      0.5013: real time      0.5013
    --------------------------------------------
      LOOP:  cpu time     11.4042: real time     11.4042

 eigenvalue-minimisations  :    32
 total energy-change (2. order) :-0.3108489E-04  (-0.2012746E-07)
 number of electron       8.0000008 magnetization 
 augmentation part        0.6791892 magnetization 

 Broyden mixing:
  rms(total) = 0.61179E-04    rms(broyden)= 0.61174E-04
  rms(prec ) = 0.90811E-04
  weight for this iteration     100.00

 eigenvalues of (default mixing * dielectric matrix)
  average eigenvalue GAMMA=   2.7167
  9.1352  6.0247  4.2277  2.9219  2.6607  2.3467  1.9264  0.9268  0.9268  1.1467
  1.0323  1.0323  1.0094

 Free energy of the ion-electron system (eV)
  ---------------------------------------------------
  alpha Z        PSCENC =         0.02803141
  Ewald energy   TEWEN  =       116.41630449
  -Hartree energ DENC   =      -511.50011324
  -exchange      EXHF   =         0.00000000
  -V(xc)+E(xc)   XCENC  =        33.81425408
  PAW double counting   =       528.40218230     -530.45666099
  entropy T*S    EENTRO =        -0.00000000
  eigenvalues    EBANDS =      -108.24590226
  atomic energy  EATOM  =       457.35103127
  Solvation  Ediel_sol  =         0.00000000
  ---------------------------------------------------
  free energy    TOTEN  =       -14.19087294 eV

  energy without entropy =      -14.19087294  energy(sigma->0) =      -14.19087294


--------------------------------------------------------------------------------------------------------




--------------------------------------- Iteration      1(  19)  ---------------------------------------


    POTLOK:  cpu time      6.2149: real time      6.2195
    SETDIJ:  cpu time      0.0017: real time      0.0017
     EDDAV:  cpu time      2.3621: real time      2.3643
       DOS:  cpu time      0.0001: real time      0.0001
    CHARGE:  cpu time      0.7241: real time      0.7247
    MIXING:  cpu time      0.5230: real time      0.5230
    --------------------------------------------
      LOOP:  cpu time      9.8258: real time      9.8334

 eigenvalue-minimisations  :    16
 total energy-change (2. order) :-0.3423232E-04  (-0.5467884E-07)
 number of electron       8.0000008 magnetization 
 augmentation part        0.6791971 magnetization 

 Broyden mixing:
  rms(total) = 0.28364E-04    rms(broyden)= 0.28361E-04
  rms(prec ) = 0.37717E-04
  weight for this iteration     100.00

 eigenvalues of (default mixing * dielectric matrix)
  average eigenvalue GAMMA=   2.7306
  9.3803  6.4277  4.4568  3.3014  2.6090  2.5033  1.7917  1.7917  0.9254  0.9254
  1.0709  1.0709  0.9868  0.9868

 Free energy of the ion-electron system (eV)
  ---------------------------------------------------
  alpha Z        PSCENC =         0.02803141
  Ewald energy   TEWEN  =       116.41630449
  -Hartree energ DENC   =      -511.49976217
  -exchange      EXHF   =         0.00000000
  -V(xc)+E(xc)   XCENC  =        33.81416629
  PAW double counting   =       528.38376134     -530.43822688
  entropy T*S    EENTRO =        -0.00000000
  eigenvalues    EBANDS =      -108.24621292
  atomic energy  EATOM  =       457.35103127
  Solvation  Ediel_sol  =         0.00000000
  ---------------------------------------------------
  free energy    TOTEN  =       -14.19090717 eV

  energy without entropy =      -14.19090717  energy(sigma->0) =      -14.19090717


--------------------------------------------------------------------------------------------------------




--------------------------------------- Iteration      1(  20)  ---------------------------------------


    POTLOK:  cpu time      6.3024: real time      6.3042
    SETDIJ:  cpu time      0.0018: real time      0.0018
     EDDAV:  cpu time      3.9857: real time      3.9873
       DOS:  cpu time      0.0001: real time      0.0001
    CHARGE:  cpu time      0.7245: real time      0.7246
    MIXING:  cpu time      0.5500: real time      0.5500
    --------------------------------------------
      LOOP:  cpu time     11.5644: real time     11.5680

 eigenvalue-minimisations  :    32
 total energy-change (2. order) :-0.8599345E-05  (-0.8479629E-08)
 number of electron       8.0000008 magnetization 
 augmentation part        0.6791973 magnetization 

 Broyden mixing:
  rms(total) = 0.15291E-04    rms(broyden)= 0.15291E-04
  rms(prec ) = 0.20040E-04
  weight for this iteration     100.00

 eigenvalues of (default mixing * dielectric matrix)
  average eigenvalue GAMMA=   2.7947
  9.5548  6.9892  4.8104  3.7250  2.9138  2.4654  2.4654  1.9086  1.2015  0.9262
  0.9262  1.0466  1.0466  0.9844  0.9558

 Free energy of the ion-electron system (eV)
  ---------------------------------------------------
  alpha Z        PSCENC =         0.02803141
  Ewald energy   TEWEN  =       116.41630449
  -Hartree energ DENC   =      -511.49927631
  -exchange      EXHF   =         0.00000000
  -V(xc)+E(xc)   XCENC  =        33.81413528
  PAW double counting   =       528.37756025     -530.43201154
  entropy T*S    EENTRO =        -0.00000000
  eigenvalues    EBANDS =      -108.24669063
  atomic energy  EATOM  =       457.35103127
  Solvation  Ediel_sol  =         0.00000000
  ---------------------------------------------------
  free energy    TOTEN  =       -14.19091577 eV

  energy without entropy =      -14.19091577  energy(sigma->0) =      -14.19091577


--------------------------------------------------------------------------------------------------------




--------------------------------------- Iteration      1(  21)  ---------------------------------------


    POTLOK:  cpu time      6.2945: real time      6.2978
    SETDIJ:  cpu time      0.0017: real time      0.0017
     EDDAV:  cpu time      2.3770: real time      2.3791
       DOS:  cpu time      0.0001: real time      0.0001
    CHARGE:  cpu time      0.7240: real time      0.7247
    MIXING:  cpu time      0.5756: real time      0.5763
    --------------------------------------------
      LOOP:  cpu time      9.9729: real time      9.9796

 eigenvalue-minimisations  :    16
 total energy-change (2. order) :-0.3329584E-05  (-0.3202091E-08)
 number of electron       8.0000008 magnetization 
 augmentation part        0.6791957 magnetization 

 Broyden mixing:
  rms(total) = 0.82549E-05    rms(broyden)= 0.82549E-05
  rms(prec ) = 0.10182E-04
  weight for this iteration     100.00

 eigenvalues of (default mixing * dielectric matrix)
  average eigenvalue GAMMA=   2.8102
  9.7279  7.1140  5.0868  3.9455  2.8705  2.8705  2.4106  1.9720  1.9720  0.9261
  0.9261  1.0710  1.0710  1.0278  0.9860  0.9860

 Free energy of the ion-electron system (eV)
  ---------------------------------------------------
  alpha Z        PSCENC =         0.02803141
  Ewald energy   TEWEN  =       116.41630449
  -Hartree energ DENC   =      -511.49968530
  -exchange      EXHF   =         0.00000000
  -V(xc)+E(xc)   XCENC  =        33.81415894
  PAW double counting   =       528.38074624     -530.43518994
  entropy T*S    EENTRO =        -0.00000000
  eigenvalues    EBANDS =      -108.24631620
  atomic energy  EATOM  =       457.35103127
  Solvation  Ediel_sol  =         0.00000000
  ---------------------------------------------------
  free energy    TOTEN  =       -14.19091910 eV

  energy without entropy =      -14.19091910  energy(sigma->0) =      -14.19091910


--------------------------------------------------------------------------------------------------------




--------------------------------------- Iteration      1(  22)  ---------------------------------------


    POTLOK:  cpu time      6.1834: real time      6.1862
    SETDIJ:  cpu time      0.0017: real time      0.0017
     EDDAV:  cpu time      3.9703: real time      3.9703
       DOS:  cpu time      0.0001: real time      0.0001
    CHARGE:  cpu time      0.7199: real time      0.7199
    MIXING:  cpu time      0.6073: real time      0.6073
    --------------------------------------------
      LOOP:  cpu time     11.4827: real time     11.4855

 eigenvalue-minimisations  :    32
 total energy-change (2. order) :-0.1241295E-05  (-0.1103508E-08)
 number of electron       8.0000008 magnetization 
 augmentation part        0.6791952 magnetization 

 Broyden mixing:
  rms(total) = 0.36263E-05    rms(broyden)= 0.36263E-05
  rms(prec ) = 0.47798E-05
  weight for this iteration     100.00

 eigenvalues of (default mixing * dielectric matrix)
  average eigenvalue GAMMA=   2.8313
  9.7702  7.2994  5.4479  4.1399  3.5714  2.6921  2.5746  2.4286  1.9293  1.3147
  0.9262  0.9262  1.0646  1.0646  0.9923  0.9923  0.9980

 Free energy of the ion-electron system (eV)
  ---------------------------------------------------
  alpha Z        PSCENC =         0.02803141
  Ewald energy   TEWEN  =       116.41630449
  -Hartree energ DENC   =      -511.49977718
  -exchange      EXHF   =         0.00000000
  -V(xc)+E(xc)   XCENC  =        33.81416070
  PAW double counting   =       528.38300339     -530.43745687
  entropy T*S    EENTRO =        -0.00000000
  eigenvalues    EBANDS =      -108.24621755
  atomic energy  EATOM  =       457.35103127
  Solvation  Ediel_sol  =         0.00000000
  ---------------------------------------------------
  free energy    TOTEN  =       -14.19092034 eV

  energy without entropy =      -14.19092034  energy(sigma->0) =      -14.19092034


--------------------------------------------------------------------------------------------------------




--------------------------------------- Iteration      1(  23)  ---------------------------------------


    POTLOK:  cpu time      6.1470: real time      6.1471
    SETDIJ:  cpu time      0.0017: real time      0.0017
     EDDAV:  cpu time      2.3529: real time      2.3529
       DOS:  cpu time      0.0001: real time      0.0001
    --------------------------------------------
      LOOP:  cpu time      8.5017: real time      8.5017

 eigenvalue-minimisations  :    16
 total energy-change (2. order) :-0.4809702E-06  (-0.4948735E-09)
 number of electron       8.0000008 magnetization 
 augmentation part        0.6791952 magnetization 

 Free energy of the ion-electron system (eV)
  ---------------------------------------------------
  alpha Z        PSCENC =         0.02803141
  Ewald energy   TEWEN  =       116.41630449
  -Hartree energ DENC   =      -511.49981100
  -exchange      EXHF   =         0.00000000
  -V(xc)+E(xc)   XCENC  =        33.81416010
  PAW double counting   =       528.38213090     -530.43658686
  entropy T*S    EENTRO =        -0.00000000
  eigenvalues    EBANDS =      -108.24618114
  atomic energy  EATOM  =       457.35103127
  Solvation  Ediel_sol  =         0.00000000
  ---------------------------------------------------
  free energy    TOTEN  =       -14.19092082 eV

  energy without entropy =      -14.19092082  energy(sigma->0) =      -14.19092082


--------------------------------------------------------------------------------------------------------




 average (electrostatic) potential at core
  the test charge radii are     0.5201  0.7215
  (the norm of the test charge is              1.0000)
       1 -44.3688       2 -44.3621       3 -80.5317
 
 
 
 E-fermi :  -6.1584     XC(G=0):  -0.0873     alpha+bet : -0.0163

 Fermi energy:        -6.1584091934

 k-point     1 :       0.0000    0.0000    0.0000
  band No.  band energies     occupation 
      1     -24.9514      2.00000
      2     -12.9110      2.00000
      3      -9.1349      2.00000
      4      -7.1257      2.00000
      5      -1.0732      0.00000
      6       0.0236      0.00000
      7       0.2111      0.00000
      8       0.3340      0.00000


--------------------------------------------------------------------------------------------------------


 soft charge-density along one line, spin component           1
         0         1         2         3         4         5         6         7         8         9
 total charge-density along one line
 
 pseudopotential strength for first ion, spin component:           1
 -2.381  -4.111  -0.000   0.003   0.000
 -4.111  -7.012  -0.000   0.008   0.000
 -0.000  -0.000  -0.326  -0.000  -0.000
  0.003   0.008  -0.000  -0.318  -0.000
  0.000   0.000  -0.000  -0.000  -0.326
 total augmentation occupancy for first ion, spin component:           1
  3.596  -0.758   0.000  -0.649   0.005
 -0.758   0.204   0.000   0.136  -0.006
  0.000   0.000   0.035   0.000   0.000
 -0.649   0.136   0.000   0.117  -0.003
  0.005  -0.006   0.000  -0.003   0.023


------------------------ aborting loop because EDIFF is reached ----------------------------------------


    CHARGE:  cpu time      0.7200: real time      0.7200
    FORLOC:  cpu time      0.5557: real time      0.5557
    FORNL :  cpu time      0.2546: real time      0.2546
    STRESS:  cpu time      2.7137: real time      2.7137
    FORCOR:  cpu time      7.1027: real time      7.1027
    FORHAR:  cpu time      1.9309: real time      1.9309
    MIXING:  cpu time      0.6388: real time      0.6388
    OFIELD:  cpu time      0.0000: real time      0.0000

  FORCE on cell =-STRESS in cart. coord.  units (eV):
  Direction    XX          YY          ZZ          XY          YZ          ZX
  --------------------------------------------------------------------------------------
  Alpha Z     0.02803     0.02803     0.02803
  Ewald      59.69800   -21.81814    78.53640     0.00341     0.00032    26.95786
  Hartree   174.39525   159.30036   177.80400     0.00023    -0.00014     4.88977
  E(xc)     -35.84539   -36.20315   -35.77136    -0.00000     0.00000     0.10645
  Local    -318.56604  -246.18104  -335.77891    -0.00107    -0.00100   -24.65178
  n-local   -30.02102   -30.47041   -29.77316     0.00055    -0.00044     0.36773
  augment     6.37370     8.09123     6.05146    -0.00001     0.00002    -0.46383
  Kinetic   142.77495   167.23225   137.39578    -0.00159     0.00024    -7.74644
  Fock        0.00000     0.00000     0.00000     0.00000     0.00000     0.00000
  -------------------------------------------------------------------------------------
  Total      -1.16253    -0.02086    -1.50776     0.00000     0.00000    -0.54023
  in kB      -0.23282    -0.00418    -0.30196     0.00000     0.00000    -0.10819
  external pressure =       -0.18 kB  Pullay stress =        0.00 kB


 VOLUME and BASIS-vectors are now :
 -----------------------------------------------------------------------------
  energy-cutoff  :      800.00
  volume of cell :     8000.00
      direct lattice vectors                 reciprocal lattice vectors
    20.000000000  0.000000000  0.000000000     0.050000000  0.000000000  0.000000000
     0.000000000 20.000000000  0.000000000     0.000000000  0.050000000  0.000000000
     0.000000000  0.000000000 20.000000000     0.000000000  0.000000000  0.050000000

  length of vectors
    20.000000000 20.000000000 20.000000000     0.050000000  0.050000000  0.050000000


 FORCES acting on ions
    electron-ion (+dipol)            ewald-force                    non-local-force                 convergence-correction
 -----------------------------------------------------------------------------------------------
   -.107E+01 -.814E-02 -.847E+02   0.101E+01 -.758E-03 0.909E+02   -.111E+00 -.203E-19 -.752E+01   0.514E-05 -.633E-08 -.135E-04
   0.796E+02 -.434E-02 0.288E+02   -.854E+02 -.355E-02 -.308E+02   0.705E+01 0.271E-19 0.257E+01   0.141E-04 -.622E-08 -.240E-06
   -.468E+02 -.116E+00 0.334E+02   0.844E+02 0.431E-02 -.601E+02   -.386E+02 0.434E-18 0.275E+02   0.277E-04 -.128E-06 -.172E-04
 -----------------------------------------------------------------------------------------------
   0.317E+02 -.129E+00 -.225E+02   0.000E+00 -.607E-17 -.711E-14   -.317E+02 0.440E-18 0.225E+02   0.469E-04 -.140E-06 -.309E-04
 
 
 POSITION                                       TOTAL-FORCE (eV/Angst)
 -----------------------------------------------------------------------------------
      5.10791      0.00007      1.44532        -0.175314      0.000000     -1.305273
      4.18045      0.00004      0.14168         1.201865      0.000000      0.602851
      5.13390      0.00008      0.44561        -1.026551     -0.000000      0.702422
 -----------------------------------------------------------------------------------
    total drift:                                0.000643     -0.128727     -0.001347


--------------------------------------------------------------------------------------------------------



  FREE ENERGIE OF THE ION-ELECTRON SYSTEM (eV)
  ---------------------------------------------------
  free  energy   TOTEN  =       -14.19092082 eV

  energy  without entropy=      -14.19092082  energy(sigma->0) =      -14.19092082
 


--------------------------------------------------------------------------------------------------------


    POTLOK:  cpu time      6.1948: real time      6.1948


--------------------------------------------------------------------------------------------------------




--------------------------------------------------------------------------------------------------------


    WAVPRE:  cpu time     17.6896: real time     17.6925
    FEWALD:  cpu time      0.0001: real time      0.0001
    ORTHCH:  cpu time      0.1007: real time      0.1007
     LOOP+:  cpu time    247.4221: real time    247.4462


--------------------------------------- Ionic step        2  -------------------------------------------




--------------------------------------- Iteration      2(   1)  ---------------------------------------


    POTLOK:  cpu time      6.1468: real time      6.1510
    SETDIJ:  cpu time      0.0018: real time      0.0018
     EDDAV:  cpu time      2.3581: real time      2.3602
       DOS:  cpu time      0.0001: real time      0.0001
    CHARGE:  cpu time      0.7238: real time      0.7238
    MIXING:  cpu time      0.2813: real time      0.2820
    --------------------------------------------
      LOOP:  cpu time      9.5119: real time      9.5188

 eigenvalue-minimisations  :    16
 total energy-change (2. order) : 0.1883184E+00  (-0.2966028E+01)
 number of electron       8.0000004 magnetization 
 augmentation part        0.7463780 magnetization 

 Broyden mixing:
  rms(total) = 0.20477E+00    rms(broyden)= 0.20475E+00
  rms(prec ) = 0.21626E+00
  weight for this iteration     100.00

 Free energy of the ion-electron system (eV)
  ---------------------------------------------------
  alpha Z        PSCENC =         0.02803141
  Ewald energy   TEWEN  =       135.98747192
  -Hartree energ DENC   =      -520.51184287
  -exchange      EXHF   =         0.00000000
  -V(xc)+E(xc)   XCENC  =        34.23559947
  PAW double counting   =       528.38156974     -530.43602082
  entropy T*S    EENTRO =        -0.00000000
  eigenvalues    EBANDS =      -119.03844202
  atomic energy  EATOM  =       457.35103127
  Solvation  Ediel_sol  =         0.00000000
  ---------------------------------------------------
  free energy    TOTEN  =       -14.00260190 eV

  energy without entropy =      -14.00260190  energy(sigma->0) =      -14.00260190


--------------------------------------------------------------------------------------------------------




--------------------------------------- Iteration      2(   2)  ---------------------------------------


    POTLOK:  cpu time      5.9082: real time      5.9099
    SETDIJ:  cpu time      0.0018: real time      0.0018
     EDDAV:  cpu time      3.1885: real time      3.1888
       DOS:  cpu time      0.0001: real time      0.0001
    CHARGE:  cpu time      0.7233: real time      0.7240
    MIXING:  cpu time      0.2883: real time      0.2883
    --------------------------------------------
      LOOP:  cpu time     10.1102: real time     10.1129

 eigenvalue-minimisations  :    24
 total energy-change (2. order) : 0.4314540E-01  (-0.6623610E-01)
 number of electron       8.0000004 magnetization 
 augmentation part        0.7361390 magnetization 

 Broyden mixing:
  rms(total) = 0.85507E-01    rms(broyden)= 0.85503E-01
  rms(prec ) = 0.89371E-01
  weight for this iteration     100.00

 eigenvalues of (default mixing * dielectric matrix)
  average eigenvalue GAMMA=   1.2823
  1.2823

 Free energy of the ion-electron system (eV)
  ---------------------------------------------------
  alpha Z        PSCENC =         0.02803141
  Ewald energy   TEWEN  =       135.98747192
  -Hartree energ DENC   =      -525.04812783
  -exchange      EXHF   =         0.00000000
  -V(xc)+E(xc)   XCENC  =        34.49214179
  PAW double counting   =       557.71368376     -559.85403161
  entropy T*S    EENTRO =        -0.00000000
  eigenvalues    EBANDS =      -114.62965721
  atomic energy  EATOM  =       457.35103127
  Solvation  Ediel_sol  =         0.00000000
  ---------------------------------------------------
  free energy    TOTEN  =       -13.95945650 eV

  energy without entropy =      -13.95945650  energy(sigma->0) =      -13.95945650


--------------------------------------------------------------------------------------------------------




--------------------------------------- Iteration      2(   3)  ---------------------------------------


    POTLOK:  cpu time      5.9826: real time      5.9838
    SETDIJ:  cpu time      0.0017: real time      0.0017
     EDDAV:  cpu time      3.9809: real time      3.9848
       DOS:  cpu time      0.0001: real time      0.0001
    CHARGE:  cpu time      0.7232: real time      0.7239
    MIXING:  cpu time      0.3014: real time      0.3014
    --------------------------------------------
      LOOP:  cpu time     10.9899: real time     10.9957

 eigenvalue-minimisations  :    32
 total energy-change (2. order) : 0.1156999E-01  (-0.5217674E-02)
 number of electron       8.0000004 magnetization 
 augmentation part        0.7278224 magnetization 

 Broyden mixing:
  rms(total) = 0.36045E-01    rms(broyden)= 0.36044E-01
  rms(prec ) = 0.37417E-01
  weight for this iteration     100.00

 eigenvalues of (default mixing * dielectric matrix)
  average eigenvalue GAMMA=   1.3679
  1.3679  1.3679

 Free energy of the ion-electron system (eV)
  ---------------------------------------------------
  alpha Z        PSCENC =         0.02803141
  Ewald energy   TEWEN  =       135.98747192
  -Hartree energ DENC   =      -526.71728998
  -exchange      EXHF   =         0.00000000
  -V(xc)+E(xc)   XCENC  =        34.58787593
  PAW double counting   =       578.03429492     -580.22633599
  entropy T*S    EENTRO =        -0.00000000
  eigenvalues    EBANDS =      -112.99296598
  atomic energy  EATOM  =       457.35103127
  Solvation  Ediel_sol  =         0.00000000
  ---------------------------------------------------
  free energy    TOTEN  =       -13.94788650 eV

  energy without entropy =      -13.94788650  energy(sigma->0) =      -13.94788650


--------------------------------------------------------------------------------------------------------




--------------------------------------- Iteration      2(   4)  ---------------------------------------


    POTLOK:  cpu time      6.0725: real time      6.0770
    SETDIJ:  cpu time      0.0017: real time      0.0017
     EDDAV:  cpu time      3.1627: real time      3.1646
       DOS:  cpu time      0.0001: real time      0.0001
    CHARGE:  cpu time      0.7231: real time      0.7243
    MIXING:  cpu time      0.3133: real time      0.3133
    --------------------------------------------
      LOOP:  cpu time     10.2734: real time     10.2810

 eigenvalue-minimisations  :    24
 total energy-change (2. order) : 0.1236595E-02  (-0.9431393E-03)
 number of electron       8.0000004 magnetization 
 augmentation part        0.7317365 magnetization 

 Broyden mixing:
[...]
  -Hartree energ DENC   =      -515.74425038
  -exchange      EXHF   =         0.00000000
  -V(xc)+E(xc)   XCENC  =        34.02783261
  PAW double counting   =       545.18849632     -547.27102145
  entropy T*S    EENTRO =        -0.00000000
  eigenvalues    EBANDS =      -109.67928515
  atomic energy  EATOM  =       457.35103127
  Solvation  Ediel_sol  =         0.00000000
  ---------------------------------------------------
  free energy    TOTEN  =       -14.23298209 eV

  energy without entropy =      -14.23298209  energy(sigma->0) =      -14.23298209


--------------------------------------------------------------------------------------------------------




--------------------------------------- Iteration     13(   2)  ---------------------------------------


    POTLOK:  cpu time      6.2309: real time      6.2309
    SETDIJ:  cpu time      0.0017: real time      0.0017
     EDDAV:  cpu time      3.9743: real time      3.9743
       DOS:  cpu time      0.0001: real time      0.0001
    --------------------------------------------
      LOOP:  cpu time     10.2070: real time     10.2070

 eigenvalue-minimisations  :    32
 total energy-change (2. order) :-0.1303545E-07  (-0.6902390E-09)
 number of electron       8.0000007 magnetization 
 augmentation part        0.6905849 magnetization 

 Free energy of the ion-electron system (eV)
  ---------------------------------------------------
  alpha Z        PSCENC =         0.02803141
  Ewald energy   TEWEN  =       121.86618328
  -Hartree energ DENC   =      -515.74473461
  -exchange      EXHF   =         0.00000000
  -V(xc)+E(xc)   XCENC  =        34.02786006
  PAW double counting   =       545.18841902     -547.27094857
  entropy T*S    EENTRO =        -0.00000000
  eigenvalues    EBANDS =      -109.67882397
  atomic energy  EATOM  =       457.35103127
  Solvation  Ediel_sol  =         0.00000000
  ---------------------------------------------------
  free energy    TOTEN  =       -14.23298211 eV

  energy without entropy =      -14.23298211  energy(sigma->0) =      -14.23298211


--------------------------------------------------------------------------------------------------------




 average (electrostatic) potential at core
  the test charge radii are     0.5201  0.7215
  (the norm of the test charge is              1.0000)
       1 -44.7114       2 -44.7115       3 -80.5681
 
 
 
 E-fermi :  -6.2623     XC(G=0):  -0.0803     alpha+bet : -0.0163

 Fermi energy:        -6.2622954539

 k-point     1 :       0.0000    0.0000    0.0000
  band No.  band energies     occupation 
      1     -25.2918      2.00000
      2     -13.0937      2.00000
      3      -9.2587      2.00000
      4      -7.1952      2.00000
      5      -0.9850      0.00000
      6       0.0334      0.00000
      7       0.2393      0.00000
      8       0.3261      0.00000


--------------------------------------------------------------------------------------------------------


 soft charge-density along one line, spin component           1
         0         1         2         3         4         5         6         7         8         9
 total charge-density along one line
 
 pseudopotential strength for first ion, spin component:           1
 -2.384  -4.117  -0.000   0.003  -0.000
 -4.117  -7.023  -0.000   0.009  -0.000
 -0.000  -0.000  -0.324  -0.000   0.000
  0.003   0.009  -0.000  -0.314  -0.000
 -0.000  -0.000   0.000  -0.000  -0.323
 total augmentation occupancy for first ion, spin component:           1
  3.744  -0.785   0.000  -0.720   0.018
 -0.785   0.216   0.000   0.147  -0.009
  0.000   0.000   0.041   0.000   0.000
 -0.720   0.147   0.000   0.139  -0.005
  0.018  -0.009   0.000  -0.005   0.027


------------------------ aborting loop because EDIFF is reached ----------------------------------------


    CHARGE:  cpu time      0.7205: real time      0.7205
    FORLOC:  cpu time      0.5556: real time      0.5556
    FORNL :  cpu time      0.2548: real time      0.2548
    STRESS:  cpu time      2.7128: real time      2.7128
    FORCOR:  cpu time      7.1055: real time      7.1055
    FORHAR:  cpu time      1.9292: real time      1.9292
    MIXING:  cpu time      0.2877: real time      0.2877
    OFIELD:  cpu time      0.0000: real time      0.0000

  FORCE on cell =-STRESS in cart. coord.  units (eV):
  Direction    XX          YY          ZZ          XY          YZ          ZX
  --------------------------------------------------------------------------------------
  Alpha Z     0.02803     0.02803     0.02803
  Ewald      62.99322   -21.81647    80.68947     0.00364     0.00029    25.42095
  Hartree   175.95353   160.81147   178.98006     0.00025    -0.00015     4.33893
  E(xc)     -36.06469   -36.42653   -35.99965    -0.00000     0.00000     0.09362
  Local    -322.46042  -248.18712  -338.21274    -0.00125    -0.00092   -22.60669
  n-local   -30.69360   -30.80084   -30.42691     0.00052    -0.00042     0.38378
  augment     6.41557     8.15814     6.09940    -0.00001     0.00002    -0.45574
  Kinetic   143.80612   168.21224   138.82185    -0.00151     0.00018    -7.17405
  Fock        0.00000     0.00000     0.00000     0.00000     0.00000     0.00000
  -------------------------------------------------------------------------------------
  Total      -0.02223    -0.02109    -0.02050     0.00000     0.00000     0.00080
  in kB      -0.00445    -0.00422    -0.00410     0.00000     0.00000     0.00016
  external pressure =       -0.00 kB  Pullay stress =        0.00 kB


 VOLUME and BASIS-vectors are now :
 -----------------------------------------------------------------------------
  energy-cutoff  :      800.00
  volume of cell :     8000.00
      direct lattice vectors                 reciprocal lattice vectors
    20.000000000  0.000000000  0.000000000     0.050000000  0.000000000  0.000000000
     0.000000000 20.000000000  0.000000000     0.000000000  0.050000000  0.000000000
     0.000000000  0.000000000 20.000000000     0.000000000  0.000000000  0.050000000

  length of vectors
    20.000000000 20.000000000 20.000000000     0.050000000  0.050000000  0.050000000


 FORCES acting on ions
    electron-ion (+dipol)            ewald-force                    non-local-force                 convergence-correction
 -----------------------------------------------------------------------------------------------
   0.141E+00 -.855E-02 -.880E+02   -.189E+00 -.822E-03 0.963E+02   0.490E-01 -.678E-20 -.832E+01   0.427E-05 0.176E-09 0.982E-05
   0.832E+02 -.455E-02 0.287E+02   -.911E+02 -.388E-02 -.314E+02   0.788E+01 -.136E-19 0.268E+01   -.170E-04 -.173E-08 -.165E-04
   -.513E+02 -.117E+00 0.365E+02   0.912E+02 0.471E-02 -.649E+02   -.400E+02 0.434E-18 0.284E+02   0.752E-04 0.164E-07 -.796E-04
 -----------------------------------------------------------------------------------------------
   0.321E+02 -.130E+00 -.228E+02   0.000E+00 -.520E-17 0.000E+00   -.321E+02 0.413E-18 0.228E+02   0.625E-04 0.149E-07 -.863E-04
 
 
 POSITION                                       TOTAL-FORCE (eV/Angst)
 -----------------------------------------------------------------------------------
      5.09115      0.00007      1.41863         0.000492     -0.000000     -0.000431
      4.20047      0.00004      0.16634         0.001126     -0.000000     -0.000451
      5.13065      0.00008      0.44764        -0.001618      0.000000      0.000882
 -----------------------------------------------------------------------------------
    total drift:                                0.000700     -0.130242     -0.000931


--------------------------------------------------------------------------------------------------------



  FREE ENERGIE OF THE ION-ELECTRON SYSTEM (eV)
  ---------------------------------------------------
  free  energy   TOTEN  =       -14.23298211 eV

  energy  without entropy=      -14.23298211  energy(sigma->0) =      -14.23298211
 
 d Force = 0.6198736E-08[ 0.138E-08, 0.110E-07]  d Energy = 0.3756793E-07-0.314E-07
 d Force =-0.1863038E-02[-0.186E-02,-0.186E-02]  d Ewald  =-0.1863038E-02-0.196E-10


--------------------------------------------------------------------------------------------------------


    POTLOK:  cpu time      6.2309: real time      6.2309


--------------------------------------------------------------------------------------------------------




--------------------------------------------------------------------------------------------------------


    WAVPRE:  cpu time      2.1745: real time      2.1745
    FEWALD:  cpu time      0.0001: real time      0.0001
    ORTHCH:  cpu time      0.1018: real time      0.1018
     LOOP+:  cpu time     41.8564: real time     41.8565


--------------------------------------- Ionic step       14  -------------------------------------------




--------------------------------------- Iteration     14(   1)  ---------------------------------------


    POTLOK:  cpu time      6.2273: real time      6.2273
    SETDIJ:  cpu time      0.0017: real time      0.0017
     EDDAV:  cpu time      2.3475: real time      2.3475
       DOS:  cpu time      0.0001: real time      0.0001
    CHARGE:  cpu time      0.7212: real time      0.7212
    MIXING:  cpu time      0.2715: real time      0.2716
    --------------------------------------------
      LOOP:  cpu time      9.5694: real time      9.5694

 eigenvalue-minimisations  :    16
 total energy-change (2. order) :-0.8069048E-07  (-0.9438673E-06)
 number of electron       8.0000007 magnetization 
 augmentation part        0.6906008 magnetization 

 Broyden mixing:
  rms(total) = 0.77740E-04    rms(broyden)= 0.77719E-04
  rms(prec ) = 0.81099E-04
  weight for this iteration     100.00

 Free energy of the ion-electron system (eV)
  ---------------------------------------------------
  alpha Z        PSCENC =         0.02803141
  Ewald energy   TEWEN  =       121.86848597
  -Hartree energ DENC   =      -515.74550254
  -exchange      EXHF   =         0.00000000
  -V(xc)+E(xc)   XCENC  =        34.02788272
  PAW double counting   =       545.18807392     -547.27060488
  entropy T*S    EENTRO =        -0.00000000
  eigenvalues    EBANDS =      -109.68038005
  atomic energy  EATOM  =       457.35103127
  Solvation  Ediel_sol  =         0.00000000
  ---------------------------------------------------
  free energy    TOTEN  =       -14.23298218 eV

  energy without entropy =      -14.23298218  energy(sigma->0) =      -14.23298218


--------------------------------------------------------------------------------------------------------




--------------------------------------- Iteration     14(   2)  ---------------------------------------


    POTLOK:  cpu time      6.2451: real time      6.2451
    SETDIJ:  cpu time      0.0017: real time      0.0017
     EDDAV:  cpu time      3.1634: real time      3.1634
       DOS:  cpu time      0.0001: real time      0.0001
    --------------------------------------------
      LOOP:  cpu time      9.4103: real time      9.4103

 eigenvalue-minimisations  :    24
 total energy-change (2. order) :-0.1066581E-07  (-0.1540758E-07)
 number of electron       8.0000007 magnetization 
 augmentation part        0.6906008 magnetization 

 Free energy of the ion-electron system (eV)
  ---------------------------------------------------
  alpha Z        PSCENC =         0.02803141
  Ewald energy   TEWEN  =       121.86848597
  -Hartree energ DENC   =      -515.74682307
  -exchange      EXHF   =         0.00000000
  -V(xc)+E(xc)   XCENC  =        34.02795988
  PAW double counting   =       545.19248677     -547.27504430
  entropy T*S    EENTRO =        -0.00000000
  eigenvalues    EBANDS =      -109.67911012
  atomic energy  EATOM  =       457.35103127
  Solvation  Ediel_sol  =         0.00000000
  ---------------------------------------------------
  free energy    TOTEN  =       -14.23298219 eV

  energy without entropy =      -14.23298219  energy(sigma->0) =      -14.23298219


--------------------------------------------------------------------------------------------------------




 average (electrostatic) potential at core
  the test charge radii are     0.5201  0.7215
  (the norm of the test charge is              1.0000)
       1 -44.7116       2 -44.7118       3 -80.5680
 
 
 
 E-fermi :  -6.2620     XC(G=0):  -0.0798     alpha+bet : -0.0163

 Fermi energy:        -6.2620223367

 k-point     1 :       0.0000    0.0000    0.0000
  band No.  band energies     occupation 
      1     -25.2918      2.00000
      2     -13.0943      2.00000
      3      -9.2583      2.00000
      4      -7.1952      2.00000
      5      -0.9851      0.00000
      6       0.0341      0.00000
      7       0.2393      0.00000
      8       0.3265      0.00000


--------------------------------------------------------------------------------------------------------


 soft charge-density along one line, spin component           1
         0         1         2         3         4         5         6         7         8         9
 total charge-density along one line
 
 pseudopotential strength for first ion, spin component:           1
 -2.384  -4.117  -0.000   0.003  -0.000
 -4.117  -7.023  -0.000   0.009  -0.000
 -0.000  -0.000  -0.324  -0.000   0.000
  0.003   0.009  -0.000  -0.314  -0.000
 -0.000  -0.000   0.000  -0.000  -0.323
 total augmentation occupancy for first ion, spin component:           1
  3.744  -0.785   0.000  -0.720   0.018
 -0.785   0.216   0.000   0.147  -0.009
  0.000   0.000   0.041   0.000   0.000
 -0.720   0.147   0.000   0.139  -0.005
  0.018  -0.009   0.000  -0.005   0.027


------------------------ aborting loop because EDIFF is reached ----------------------------------------


    CHARGE:  cpu time      0.7206: real time      0.7206
    FORLOC:  cpu time      0.5555: real time      0.5555
    FORNL :  cpu time      0.2546: real time      0.2546
    STRESS:  cpu time      2.7146: real time      2.7146
    FORCOR:  cpu time      7.1068: real time      7.1068
    FORHAR:  cpu time      1.9283: real time      1.9283
    MIXING:  cpu time      0.2884: real time      0.2884
    OFIELD:  cpu time      0.0000: real time      0.0000

  FORCE on cell =-STRESS in cart. coord.  units (eV):
  Direction    XX          YY          ZZ          XY          YZ          ZX
  --------------------------------------------------------------------------------------
  Alpha Z     0.02803     0.02803     0.02803
  Ewald      62.99066   -21.81647    80.69432     0.00364     0.00029    25.43279
  Hartree   175.95310   160.81199   178.98140     0.00025    -0.00015     4.34114
  E(xc)     -36.06482   -36.42664   -35.99973    -0.00000     0.00000     0.09368
  Local    -322.45791  -248.18777  -338.21788    -0.00125    -0.00092   -22.61764
  n-local   -30.69400   -30.80106   -30.42727     0.00052    -0.00042     0.38357
  augment     6.41569     8.15818     6.09941    -0.00001     0.00002    -0.45591
  Kinetic   143.80768   168.21237   138.82096    -0.00151     0.00018    -7.17713
  Fock        0.00000     0.00000     0.00000     0.00000     0.00000     0.00000
  -------------------------------------------------------------------------------------
  Total      -0.02156    -0.02136    -0.02075     0.00000     0.00000     0.00049
  in kB      -0.00432    -0.00428    -0.00416     0.00000     0.00000     0.00010
  external pressure =       -0.00 kB  Pullay stress =        0.00 kB


 VOLUME and BASIS-vectors are now :
 -----------------------------------------------------------------------------
  energy-cutoff  :      800.00
  volume of cell :     8000.00
      direct lattice vectors                 reciprocal lattice vectors
    20.000000000  0.000000000  0.000000000     0.050000000  0.000000000  0.000000000
     0.000000000 20.000000000  0.000000000     0.000000000  0.050000000  0.000000000
     0.000000000  0.000000000 20.000000000     0.000000000  0.000000000  0.050000000

  length of vectors
    20.000000000 20.000000000 20.000000000     0.050000000  0.050000000  0.050000000


 FORCES acting on ions
    electron-ion (+dipol)            ewald-force                    non-local-force                 convergence-correction
 -----------------------------------------------------------------------------------------------
   0.135E+00 -.855E-02 -.880E+02   -.184E+00 -.822E-03 0.963E+02   0.484E-01 -.271E-19 -.832E+01   0.939E-04 0.369E-07 -.797E-04
   0.832E+02 -.455E-02 0.288E+02   -.911E+02 -.388E-02 -.314E+02   0.788E+01 -.271E-19 0.269E+01   0.776E-04 0.450E-07 -.663E-04
   -.513E+02 -.117E+00 0.365E+02   0.912E+02 0.471E-02 -.649E+02   -.400E+02 0.434E-18 0.284E+02   0.150E-02 -.202E-06 -.823E-03
 -----------------------------------------------------------------------------------------------
   0.321E+02 -.130E+00 -.228E+02   0.000E+00 -.520E-17 0.000E+00   -.321E+02 0.379E-18 0.228E+02   0.167E-02 -.120E-06 -.969E-03
 
 
 POSITION                                       TOTAL-FORCE (eV/Angst)
 -----------------------------------------------------------------------------------
      5.09117      0.00007      1.41864        -0.000061     -0.000000     -0.000369
      4.20047      0.00004      0.16630         0.000132      0.000000     -0.000173
      5.13061      0.00008      0.44766        -0.000071      0.000000      0.000543
 -----------------------------------------------------------------------------------
    total drift:                                0.000592     -0.130242     -0.000843


--------------------------------------------------------------------------------------------------------



  FREE ENERGIE OF THE ION-ELECTRON SYSTEM (eV)
  ---------------------------------------------------
  free  energy   TOTEN  =       -14.23298219 eV

  energy  without entropy=      -14.23298219  energy(sigma->0) =      -14.23298219
 
 d Force = 0.6261367E-07[ 0.143E-07, 0.111E-06]  d Energy = 0.7832085E-07-0.157E-07
 d Force =-0.2302689E-02[-0.230E-02,-0.230E-02]  d Ewald  =-0.2302689E-02 0.386E-10


--------------------------------------------------------------------------------------------------------


    POTLOK:  cpu time      6.2276: real time      6.2276


--------------------------------------------------------------------------------------------------------


 Conjugate gradient step on ions:
 trial-energy change:   -0.000000  1 .order   -0.000000   -0.000000   -0.000000
  (g-gl).g = 0.264E-06      g.g   = 0.256E-06  gl.gl    = 0.282E-06
 g(Force)  = 0.256E-06   g(Stress)= 0.000E+00 ortho     =-0.870E-08
 gamma     =   0.93638
 trial     =   0.44832
 opt step  =   0.51486  (harmonic =   0.51486) maximal distance =0.00003319
 next E    =   -14.232982   (d E  =  -0.00000)


--------------------------------------------------------------------------------------------------------


  
 reached required accuracy - stopping structural energy minimisation
 writing wavefunctions
     LOOP+:  cpu time     38.8601: real time     38.8602
    4ORBIT:  cpu time      0.0000: real time      0.0000

 total amount of memory used by VASP MPI-rank0  2252577. kBytes
=======================================================================

   base      :      30000. kBytes
   nonl-proj :      72311. kBytes
   fftplans  :     752008. kBytes
   grid      :    1345657. kBytes
   one-center:          9. kBytes
   wavefun   :      52592. kBytes
 
  
  
 General timing and accounting informations for this job:
 ========================================================
  
                  Total CPU time used (sec):     1406.311
                            User time (sec):     1320.204
                          System time (sec):       86.106
                         Elapsed time (sec):     1406.789
  
                   Maximum memory used (kb):     3682528.
                   Average memory used (kb):          N/A
  
                          Minor page faults:     84337148
                          Major page faults:            0
                 Voluntary context switches:          551
