 vasp.6.4.1 05Apr23 (build Jun 06 2023 10:26:43) complex                        
  
 executed on             LinuxIFC date 2023.06.30  10:45:41
 running    1 mpi-ranks, on    1 nodes
 distrk:  each k-point on    1 cores,    1 groups
 distr:  one band on NCORE=   1 cores,    1 groups


--------------------------------------------------------------------------------------------------------


 INCAR:
   SYSTEM = BN
   GGA = PE
   ISMEAR = 0
   EDIFF = 1.0E-6
   EDIFFG = -1.0E-3
   KPAR = 1
   NCSHMEM = -1
   PREC = Normal
   NCORE = 4
   IBRION = 2
   POTIM = 0.5
   NSW = 101
   ENCUT = 900

 POTCAR:    PAW_PBE H 15Jun2001                   
 POTCAR:    PAW_PBE O 08Apr2002                   
 -----------------------------------------------------------------------------
|                                                                             |
|           W    W    AA    RRRRR   N    N  II  N    N   GGGG   !!!           |
|           W    W   A  A   R    R  NN   N  II  NN   N  G    G  !!!           |
|           W    W  A    A  R    R  N N  N  II  N N  N  G       !!!           |
|           W WW W  AAAAAA  RRRRR   N  N N  II  N  N N  G  GGG   !            |
|           WW  WW  A    A  R   R   N   NN  II  N   NN  G    G                |
|           W    W  A    A  R    R  N    N  II  N    N   GGGG   !!!           |
|                                                                             |
|     The value NCORE = 4 specified in the INCAR file was overwritten,        |
|     because it was not compatible with the 1 processes available:           |
|     NCORE = 1                                                               |
|     was used instead, please check that this makes sense for your           |
|     machine.                                                                |
|                                                                             |
 -----------------------------------------------------------------------------

 POTCAR:    PAW_PBE H 15Jun2001                   
   VRHFIN =H: ultrasoft test                                                                        
   LEXCH  = PE                                                                                      
   EATOM  =    12.4884 eV,    0.9179 Ry                                                             
                                                                                                    
   TITEL  = PAW_PBE H 15Jun2001                                                                     
   LULTRA =        F    use ultrasoft PP ?                                                          
   IUNSCR =        0    unscreen: 0-lin 1-nonlin 2-no                                               
   RPACOR =    0.000    partial core radius                                                         
   POMASS =    1.000; ZVAL   =    1.000    mass and valenz                                          
   RCORE  =    1.100    outmost cutoff radius                                                       
   RWIGS  =    0.700; RWIGS  =    0.370    wigner-seitz radius (au A)                               
   ENMAX  =  250.000; ENMIN  =  200.000 eV                                                          
   RCLOC  =    0.701    cutoff for local pot                                                        
   LCOR   =        T    correct aug charges                                                         
   LPAW   =        T    paw PP                                                                      
   EAUG   =  400.000                                                                                
   RMAX   =    1.123    core radius for proj-oper                                                   
   RAUG   =    1.200    factor for augmentation sphere                                              
   RDEP   =    1.112    radius for radial grids                                                     
   RDEPT  =    0.926    core radius for aug-charge                                                  
                                                                                                    
   Atomic configuration                                                                             
    2 entries                                                                                       
     n  l   j            E        occ.                                                              
     1  0  0.50        -6.4927   1.0000                                                             
     2  1  0.50        -3.4015   0.0000                                                             
   Description                                                                                      
     l       E           TYP  RCUT    TYP  RCUT                                                     
     0     -6.4927494     23  1.100                                                                 
     0      6.8029130     23  1.100                                                                 
     1     -4.0817478     23  1.100                                                                 
  local pseudopotential read in
  atomic valenz-charges read in
  non local Contribution for L=           0  read in
    real space projection operators read in
  non local Contribution for L=           0  read in
    real space projection operators read in
  non local Contribution for L=           1  read in
    real space projection operators read in
    PAW grid and wavefunctions read in
 
   number of l-projection  operators is LMAX  =           3
   number of lm-projection operators is LMMAX =           5
 
 POTCAR:    PAW_PBE O 08Apr2002                   
   VRHFIN =O: s2p4                                                                                  
   LEXCH  = PE                                                                                      
   EATOM  =   432.3788 eV,   31.7789 Ry                                                             
                                                                                                    
   TITEL  = PAW_PBE O 08Apr2002                                                                     
   LULTRA =        F    use ultrasoft PP ?                                                          
   IUNSCR =        1    unscreen: 0-lin 1-nonlin 2-no                                               
   RPACOR =    1.200    partial core radius                                                         
   POMASS =   16.000; ZVAL   =    6.000    mass and valenz                                          
   RCORE  =    1.520    outmost cutoff radius                                                       
   RWIGS  =    1.550; RWIGS  =    0.820    wigner-seitz radius (au A)                               
   ENMAX  =  400.000; ENMIN  =  300.000 eV                                                          
   ICORE  =        2    local potential                                                             
   LCOR   =        T    correct aug charges                                                         
   LPAW   =        T    paw PP                                                                      
   EAUG   =  605.392                                                                                
   DEXC   =    0.000                                                                                
   RMAX   =    1.553    core radius for proj-oper                                                   
   RAUG   =    1.300    factor for augmentation sphere                                              
   RDEP   =    1.550    radius for radial grids                                                     
   RDEPT  =    1.329    core radius for aug-charge                                                  
                                                                                                    
   Atomic configuration                                                                             
    4 entries                                                                                       
     n  l   j            E        occ.                                                              
     1  0  0.50      -514.6923   2.0000                                                             
     2  0  0.50       -23.9615   2.0000                                                             
     2  1  0.50        -9.0305   4.0000                                                             
     3  2  1.50        -9.5241   0.0000                                                             
   Description                                                                                      
     l       E           TYP  RCUT    TYP  RCUT                                                     
     0    -23.9615318     23  1.200                                                                 
     0     -9.5240782     23  1.200                                                                 
     1     -9.0304911     23  1.520                                                                 
     1      8.1634956     23  1.520                                                                 
     2     -9.5240782      7  1.500                                                                 
  local pseudopotential read in
  partial core-charges read in
  partial kinetic energy density read in
  kinetic energy density of atom read in
  atomic valenz-charges read in
  non local Contribution for L=           0  read in
    real space projection operators read in
  non local Contribution for L=           0  read in
    real space projection operators read in
  non local Contribution for L=           1  read in
    real space projection operators read in
  non local Contribution for L=           1  read in
    real space projection operators read in
    PAW grid and wavefunctions read in
 
   number of l-projection  operators is LMAX  =           4
   number of lm-projection operators is LMMAX =           8
 
  PAW_PBE H 15Jun2001                   :
 energy of atom  1       EATOM=  -12.4884
 kinetic energy error for atom=    0.0002 (will be added to EATOM!!)
  PAW_PBE O 08Apr2002                   :
 energy of atom  2       EATOM= -432.3788
 kinetic energy error for atom=    0.0026 (will be added to EATOM!!)
 
 
 POSCAR: Water molecule
  positions in cartesian coordinates
  No initial velocities read in
 exchange correlation table for  LEXCH =        8
   RHO(1)=    0.500       N(1)  =     2000
   RHO(2)=  100.500       N(2)  =     4000
 


--------------------------------------------------------------------------------------------------------


 ion  position               nearest neighbor table
   1  0.255  0.000  0.072-   3 1.00
   2  0.209  0.000  0.007-   3 1.00
   3  0.257  0.000  0.022-   1 1.00   2 1.00
 
  LATTYP: Found a simple cubic cell.
 ALAT       =    20.0000000000
  
  Lattice vectors:
  
 A1 = (  20.0000000000,   0.0000000000,   0.0000000000)
 A2 = (   0.0000000000,  20.0000000000,   0.0000000000)
 A3 = (   0.0000000000,   0.0000000000,  20.0000000000)


Analysis of symmetry for initial positions (statically):
=====================================================================
 Subroutine PRICEL returns:
 Original cell was already a primitive cell.
 

 Routine SETGRP: Setting up the symmetry group for a 
 simple cubic supercell.


 Subroutine GETGRP returns: Found  2 space group operations
 (whereof  2 operations were pure point group operations)
 out of a pool of 48 trial point group operations.


The static configuration has the point symmetry C_1h.


Analysis of symmetry for dynamics (positions and initial velocities):
=====================================================================
 Subroutine PRICEL returns:
 Original cell was already a primitive cell.
 

 Routine SETGRP: Setting up the symmetry group for a 
 simple cubic supercell.


 Subroutine GETGRP returns: Found  2 space group operations
 (whereof  2 operations were pure point group operations)
 out of a pool of 48 trial point group operations.


The dynamic configuration has the point symmetry C_1h.


 Subroutine INISYM returns: Found  2 space group operations
 (whereof  2 operations are pure point group operations),
 and found     1 'primitive' translations


----------------------------------------------------------------------------------------

                                     Primitive cell                                     

  volume of cell :    8000.0000

  direct lattice vectors                    reciprocal lattice vectors
    20.000000000  0.000000000  0.000000000     0.050000000  0.000000000  0.000000000
     0.000000000 20.000000000  0.000000000     0.000000000  0.050000000  0.000000000
     0.000000000  0.000000000 20.000000000     0.000000000  0.000000000  0.050000000

  length of vectors
    20.000000000 20.000000000 20.000000000     0.050000000  0.050000000  0.050000000

  position of ions in fractional coordinates (direct lattice)
     0.255395500  0.000003500  0.072266000
     0.209022500  0.000002000  0.007084000
     0.256695000  0.000004000  0.022280500

  ion indices of the primitive-cell ions
   primitive index   ion index
                 1           1
                 2           2
                 3           3

----------------------------------------------------------------------------------------

 
 
 KPOINTS: Automatically generated mesh            

Automatic generation of k-mesh.
 Grid dimensions read from file:
 generate k-points for:    1    1    1

 Generating k-lattice:

  Cartesian coordinates                     Fractional coordinates (reciprocal lattice)
     0.050000000  0.000000000  0.000000000     1.000000000  0.000000000  0.000000000
     0.000000000  0.050000000  0.000000000     0.000000000  1.000000000  0.000000000
     0.000000000  0.000000000  0.050000000     0.000000000  0.000000000  1.000000000

  Length of vectors
     0.050000000  0.050000000  0.050000000

  Shift w.r.t. Gamma in fractional coordinates (k-lattice)
     0.000000000  0.000000000  0.000000000

 
 Subroutine IBZKPT returns following result:
 ===========================================
 
 Found      1 irreducible k-points:
 
 Following reciprocal coordinates:
            Coordinates               Weight
  0.000000  0.000000  0.000000      1.000000
 
 Following cartesian coordinates:
            Coordinates               Weight
  0.000000  0.000000  0.000000      1.000000
 


--------------------------------------------------------------------------------------------------------




 Dimension of arrays:
   k-points           NKPTS =      1   k-points in BZ     NKDIM =      1   number of bands    NBANDS=      8
   number of dos      NEDOS =    301   number of ions     NIONS =      3
   non local maximal  LDIM  =      4   non local SUM 2l+1 LMDIM =      8
   total plane-waves  NPLWV = ******
   max r-space proj   IRMAX =      1   max aug-charges    IRDMAX=   5672
   dimension x,y,z NGX =   150 NGY =  150 NGZ =  150
   dimension x,y,z NGXF=   300 NGYF=  300 NGZF=  300
   support grid    NGXF=   300 NGYF=  300 NGZF=  300
   ions per type =               2   1
   NGX,Y,Z   is equivalent  to a cutoff of  12.47, 12.47, 12.47 a.u.
   NGXF,Y,Z  is equivalent  to a cutoff of  24.94, 24.94, 24.94 a.u.

 SYSTEM =  BN                                      
 POSCAR =  Water molecule                          

 Startparameter for this run:
   NWRITE =      2    write-flag & timer
   PREC   = normal    normal or accurate (medium, high low for compatibility)
   ISTART =      1    job   : 0-new  1-cont  2-samecut
   ICHARG =      0    charge: 1-file 2-atom 10-const
   ISPIN  =      1    spin polarized calculation?
   LNONCOLLINEAR =      F non collinear calculations
   LSORBIT =      F    spin-orbit coupling
   INIWAV =      1    electr: 0-lowe 1-rand  2-diag
   LASPH  =      F    aspherical Exc in radial PAW
 Electronic Relaxation 1
   ENCUT  =  900.0 eV  66.15 Ry    8.13 a.u.  48.92 48.92 48.92*2*pi/ulx,y,z
   ENINI  =  900.0     initial cutoff
   ENAUG  =  605.4 eV  augmentation charge cutoff
   NELM   =     60;   NELMIN=  2; NELMDL=  0     # of ELM steps 
   EDIFF  = 0.1E-05   stopping-criterion for ELM
   LREAL  =      F    real-space projection
   NLSPLINE    = F    spline interpolate recip. space projectors
   LCOMPAT=      F    compatible to vasp.4.4
   GGA_COMPAT  = T    GGA compatible to vasp.4.4-vasp.4.6
   LMAXPAW     = -100 max onsite density
   LMAXMIX     =    2 max onsite mixed and CHGCAR
   VOSKOWN=      0    Vosko Wilk Nusair interpolation
   ROPT   =    0.00000   0.00000
 Ionic relaxation
   EDIFFG = -.1E-02   stopping-criterion for IOM
   NSW    =    101    number of steps for IOM
   NBLOCK =      1;   KBLOCK =    101    inner block; outer block 
   IBRION =      2    ionic relax: 0-MD 1-quasi-New 2-CG
   NFREE  =      1    steps in history (QN), initial steepest desc. (CG)
   ISIF   =      2    stress and relaxation
   IWAVPR =     11    prediction:  0-non 1-charg 2-wave 3-comb
   ISYM   =      2    0-nonsym 1-usesym 2-fastsym
   LCORR  =      T    Harris-Foulkes like correction to forces

   POTIM  = 0.5000    time-step for ionic-motion
   TEIN   =    0.0    initial temperature
   TEBEG  =    0.0;   TEEND  =   0.0 temperature during run
   SMASS  =  -3.00    Nose mass-parameter (am)
   estimated Nose-frequenzy (Omega)   =  0.10E-29 period in steps = 0.13E+47 mass=  -0.914E-26a.u.
   SCALEE = 1.0000    scale energy and forces
   NPACO  =    256;   APACO  = 10.0  distance and # of slots for P.C.
   PSTRESS=    0.0 pullay stress

  Mass of Ions in am
   POMASS =   1.00 16.00
  Ionic Valenz
   ZVAL   =   1.00  6.00
  Atomic Wigner-Seitz radii
   RWIGS  =  -1.00 -1.00
  virtual crystal weights 
   VCA    =   1.00  1.00
   NELECT =       8.0000    total number of electrons
   NUPDOWN=      -1.0000    fix difference up-down

 DOS related values:
   EMIN   =  10.00;   EMAX   =-10.00  energy-range for DOS
   EFERMI =   0.00;   METHOD = LEGACY      
   ISMEAR =     0;   SIGMA  =   0.20  broadening in eV -4-tet -1-fermi 0-gaus

 Electronic relaxation 2 (details)
   IALGO  =     38    algorithm
   LDIAG  =      T    sub-space diagonalisation (order eigenvalues)
   LSUBROT=      F    optimize rotation matrix (better conditioning)
   TURBO    =      0    0=normal 1=particle mesh
   IRESTART =      0    0=no restart 2=restart with 2 vectors
   NREBOOT  =      0    no. of reboots
   NMIN     =      0    reboot dimension
   EREF     =   0.00    reference energy to select bands
   IMIX   =      4    mixing-type and parameters
     AMIX     =   0.40;   BMIX     =  1.00
     AMIX_MAG =   1.60;   BMIX_MAG =  1.00
     AMIN     =   0.10
     WC   =   100.;   INIMIX=   1;  MIXPRE=   1;  MAXMIX= -45

 Intra band minimization:
   WEIMIN = 0.0010     energy-eigenvalue tresh-hold
   EBREAK =  0.31E-07  absolut break condition
   DEPER  =   0.30     relativ break condition  

   TIME   =   0.40     timestep for ELM

  volume/ion in A,a.u.               =    2666.67     17995.55
  Fermi-wavevector in a.u.,A,eV,Ry     =   0.163710  0.309367  0.364649  0.026801
  Thomas-Fermi vector in A             =   0.862763
 
 Write flags
   LWAVE        =      T    write WAVECAR
   LDOWNSAMPLE  =      F    k-point downsampling of WAVECAR
   LCHARG       =      T    write CHGCAR
   LVTOT        =      F    write LOCPOT, total local potential
   LVHAR        =      F    write LOCPOT, Hartree potential only
   LELF         =      F    write electronic localiz. function (ELF)
   LORBIT       =      0    0 simple, 1 ext, 2 COOP (PROOUT), +10 PAW based schemes


 Dipole corrections
   LMONO  =      F    monopole corrections only (constant potential shift)
   LDIPOL =      F    correct potential (dipole corrections)
   IDIPOL =      0    1-x, 2-y, 3-z, 4-all directions 
   EPSILON=  1.0000000 bulk dielectric constant

 Exchange correlation treatment:
   GGA     =    PE    GGA type
   LEXCH   =     8    internal setting for exchange type
   LIBXC   =     F    Libxc                    
   VOSKOWN =     0    Vosko Wilk Nusair interpolation
   LHFCALC =     F    Hartree Fock is set to
   LHFONE  =     F    Hartree Fock one center treatment
   AEXX    =    0.0000 exact exchange contribution

 Linear response parameters
   LEPSILON=     F    determine dielectric tensor
   LRPA    =     F    only Hartree local field effects (RPA)
   LNABLA  =     F    use nabla operator in PAW spheres
   LVEL    =     F    velocity operator in full k-point grid
   CSHIFT  =0.1000    complex shift for real part using Kramers Kronig
   OMEGAMAX=  -1.0    maximum frequency
   DEG_THRESHOLD= 0.2000000E-02 threshold for treating states as degnerate
   RTIME   =   -0.100 relaxation time in fs
  (WPLASMAI=    0.000 imaginary part of plasma frequency in eV, 0.658/RTIME)
   DFIELD  = 0.0000000 0.0000000 0.0000000 field for delta impulse in time
 
  Optional k-point grid parameters
   LKPOINTS_OPT  =     F    use optional k-point grid
   KPOINTS_OPT_MODE=     1    mode for optional k-point grid
 
 Orbital magnetization related:
   ORBITALMAG=     F  switch on orbital magnetization
   LCHIMAG   =     F  perturbation theory with respect to B field
   DQ        =  0.001000  dq finite difference perturbation B field
   LLRAUG    =     F  two centre corrections for induced B field
   LBONE     =     F  B-component reconstruction in AE one-centre
   LVGVCALC  =     T  calculate vGv susceptibility
   LVGVAPPL  =     F  apply vGv susceptibility instead of pGv for G=0

 Random number generation:
   RANDOM_GENERATOR = DEFAULT
   PCG_SEED         = not used


--------------------------------------------------------------------------------------------------------


 conjugate gradient relaxation of ions
 charge density and potential will be updated during run
 non-spin polarized calculation
 Variant of blocked Davidson
 Davidson routine will perform the subspace rotation
 perform sub-space diagonalisation
    after iterative eigenvector-optimisation
 modified Broyden-mixing scheme, WC =      100.0
 initial mixing is a Kerker type mixing with AMIX =  0.4000 and BMIX =      1.0000
 Hartree-type preconditioning will be used
 using additional bands            4
 reciprocal scheme for non local part
 use partial core corrections
 calculate Harris-corrections to forces 
   (improved forces if not selfconsistent)
 use gradient corrections 
 use of overlap-Matrix (Vanderbilt PP)
 Gauss-broadening in eV      SIGMA  =   0.20


--------------------------------------------------------------------------------------------------------


  energy-cutoff  :      900.00
  volume of cell :     8000.00
      direct lattice vectors                 reciprocal lattice vectors
    20.000000000  0.000000000  0.000000000     0.050000000  0.000000000  0.000000000
     0.000000000 20.000000000  0.000000000     0.000000000  0.050000000  0.000000000
     0.000000000  0.000000000 20.000000000     0.000000000  0.000000000  0.050000000

  length of vectors
    20.000000000 20.000000000 20.000000000     0.050000000  0.050000000  0.050000000


 
 old parameters found on file WAVECAR:
  energy-cutoff  :      800.00
  volume of cell :     8000.00
      direct lattice vectors                 reciprocal lattice vectors
    20.000000000  0.000000000  0.000000000     0.050000000  0.000000000  0.000000000
     0.000000000 20.000000000  0.000000000     0.000000000  0.050000000  0.000000000
     0.000000000  0.000000000 20.000000000     0.000000000  0.000000000  0.050000000

  length of vectors

 
 k-points in units of 2pi/SCALE and weight: Automatically generated mesh            
   0.00000000  0.00000000  0.00000000       1.000
 
 k-points in reciprocal lattice and weights: Automatically generated mesh            
   0.00000000  0.00000000  0.00000000       1.000
 
 position of ions in fractional coordinates (direct lattice) 
   0.25539550  0.00000350  0.07226600
   0.20902250  0.00000200  0.00708400
   0.25669500  0.00000400  0.02228050
 
 position of ions in cartesian coordinates  (Angst):
   5.10791000  0.00007000  1.44532000
   4.18045000  0.00004000  0.14168000
   5.13390000  0.00008000  0.44561000
 


--------------------------------------------------------------------------------------------------------


 k-point   1 :   0.0000 0.0000 0.0000  plane waves:  490521

 maximum and minimum number of plane-waves per node :    490521   490521

 maximum number of plane-waves:    490521
 maximum index in each direction: 
   IXMAX=   48   IYMAX=   48   IZMAX=   48
   IXMIN=  -48   IYMIN=  -48   IZMIN=  -48


 serial   3D FFT for wavefunctions
 parallel 3D FFT for charge:
    minimum data exchange during FFTs selected (reduces bandwidth)


 total amount of memory used by VASP MPI-rank0  2758168. kBytes
=======================================================================

   base      :      30000. kBytes
   nonl-proj :      86331. kBytes
   fftplans  :     924480. kBytes
   grid      :    1654560. kBytes
   one-center:          9. kBytes
   wavefun   :      62788. kBytes
 
     INWAV:  cpu time      0.1128: real time      0.1128
 Broyden mixing: mesh for mixing (old mesh)
   NGX = 97   NGY = 97   NGZ = 97
  (NGX  =300   NGY  =300   NGZ  =300)
  gives a total of 912673 points

 charge density for first step will be calculated from the start-wavefunctions


--------------------------------------------------------------------------------------------------------


 Maximum index for augmentation-charges         5283 (set IRDMAX)


--------------------------------------------------------------------------------------------------------


 initial charge from wavefunction
 First call to EWALD:  gamma=   0.089
 Maximum number of real-space cells 3x 3x 3
 Maximum number of reciprocal cells 3x 3x 3

    FEWALD:  cpu time      0.0007: real time      0.0007


--------------------------------------- Ionic step        1  -------------------------------------------




--------------------------------------- Iteration      1(   1)  ---------------------------------------


    POTLOK:  cpu time      8.8252: real time      8.8252
    SETDIJ:  cpu time      0.0018: real time      0.0018
     EDDAV:  cpu time      3.1078: real time      3.1078
       DOS:  cpu time      0.0001: real time      0.0001
    CHARGE:  cpu time      0.9691: real time      0.9691
    MIXING:  cpu time      0.3315: real time      0.3315
    --------------------------------------------
      LOOP:  cpu time     13.2355: real time     13.2355

 eigenvalue-minimisations  :    16
 total energy-change (2. order) :-0.1423081E+02  (-0.1529642E+00)
 number of electron       7.9999994 magnetization 
 augmentation part        0.6684555 magnetization 

 Broyden mixing:
  rms(total) = 0.11415E+00    rms(broyden)= 0.11415E+00
  rms(prec ) = 0.12347E+00
  weight for this iteration     100.00

 Free energy of the ion-electron system (eV)
  ---------------------------------------------------
  alpha Z        PSCENC =         0.02803141
  Ewald energy   TEWEN  =       116.41630449
  -Hartree energ DENC   =      -515.53731804
  -exchange      EXHF   =         0.00000000
  -V(xc)+E(xc)   XCENC  =        34.01746266
  PAW double counting   =       541.04441083     -543.10644242
  entropy T*S    EENTRO =        -0.00000000
  eigenvalues    EBANDS =      -104.44591588
  atomic energy  EATOM  =       457.35265518
  Solvation  Ediel_sol  =         0.00000000
  ---------------------------------------------------
  free energy    TOTEN  =       -14.23081177 eV

  energy without entropy =      -14.23081177  energy(sigma->0) =      -14.23081177


--------------------------------------------------------------------------------------------------------




--------------------------------------- Iteration      1(   2)  ---------------------------------------


    POTLOK:  cpu time      7.9218: real time      7.9218
    SETDIJ:  cpu time      0.0018: real time      0.0018
     EDDAV:  cpu time      3.9926: real time      3.9926
       DOS:  cpu time      0.0001: real time      0.0001
    CHARGE:  cpu time      0.9058: real time      0.9058
    MIXING:  cpu time      0.3452: real time      0.3452
    --------------------------------------------
      LOOP:  cpu time     13.1672: real time     13.1673

 eigenvalue-minimisations  :    24
 total energy-change (2. order) : 0.3380618E-01  (-0.1132512E-01)
 number of electron       7.9999994 magnetization 
 augmentation part        0.6776972 magnetization 

 Broyden mixing:
  rms(total) = 0.47145E-01    rms(broyden)= 0.47145E-01
  rms(prec ) = 0.50430E-01
  weight for this iteration     100.00

 eigenvalues of (default mixing * dielectric matrix)
  average eigenvalue GAMMA=   1.2929
  1.2929

 Free energy of the ion-electron system (eV)
  ---------------------------------------------------
  alpha Z        PSCENC =         0.02803141
  Ewald energy   TEWEN  =       116.41630449
  -Hartree energ DENC   =      -512.72341493
  -exchange      EXHF   =         0.00000000
  -V(xc)+E(xc)   XCENC  =        33.86634830
  PAW double counting   =       533.17462762     -535.21943998
  entropy T*S    EENTRO =        -0.00000000
  eigenvalues    EBANDS =      -107.09211767
  atomic energy  EATOM  =       457.35265518
  Solvation  Ediel_sol  =         0.00000000
  ---------------------------------------------------
  free energy    TOTEN  =       -14.19700559 eV

  energy without entropy =      -14.19700559  energy(sigma->0) =      -14.19700559


--------------------------------------------------------------------------------------------------------




--------------------------------------- Iteration      1(   3)  ---------------------------------------


    POTLOK:  cpu time      7.8461: real time      7.8461
    SETDIJ:  cpu time      0.0018: real time      0.0018
     EDDAV:  cpu time      3.9739: real time      3.9739
       DOS:  cpu time      0.0001: real time      0.0001
    CHARGE:  cpu time      0.9064: real time      0.9064
    MIXING:  cpu time      0.3632: real time      0.3632
    --------------------------------------------
      LOOP:  cpu time     13.0913: real time     13.0914

 eigenvalue-minimisations  :    24
 total energy-change (2. order) : 0.5533659E-02  (-0.1320172E-02)
 number of electron       7.9999994 magnetization 
 augmentation part        0.6799089 magnetization 

 Broyden mixing:
  rms(total) = 0.20217E-01    rms(broyden)= 0.20217E-01
  rms(prec ) = 0.21360E-01
  weight for this iteration     100.00

 eigenvalues of (default mixing * dielectric matrix)
  average eigenvalue GAMMA=   1.5664
  1.2741  1.8588

 Free energy of the ion-electron system (eV)
  ---------------------------------------------------
  alpha Z        PSCENC =         0.02803141
  Ewald energy   TEWEN  =       116.41630449
  -Hartree energ DENC   =      -511.90504994
  -exchange      EXHF   =         0.00000000
  -V(xc)+E(xc)   XCENC  =        33.82693381
  PAW double counting   =       529.57459880     -531.62277363
  entropy T*S    EENTRO =        -0.00000000
  eigenvalues    EBANDS =      -107.86217204
  atomic energy  EATOM  =       457.35265518
  Solvation  Ediel_sol  =         0.00000000
  ---------------------------------------------------
  free energy    TOTEN  =       -14.19147193 eV

  energy without entropy =      -14.19147193  energy(sigma->0) =      -14.19147193


--------------------------------------------------------------------------------------------------------




--------------------------------------- Iteration      1(   4)  ---------------------------------------


    POTLOK:  cpu time      7.7709: real time      7.7709
    SETDIJ:  cpu time      0.0018: real time      0.0018
     EDDAV:  cpu time      5.0015: real time      5.0015
       DOS:  cpu time      0.0001: real time      0.0001
    CHARGE:  cpu time      0.9051: real time      0.9062
    MIXING:  cpu time      0.3777: real time      0.3777
    --------------------------------------------
      LOOP:  cpu time     14.0570: real time     14.0581

 eigenvalue-minimisations  :    32
 total energy-change (2. order) : 0.5647923E-03  (-0.3755352E-03)
 number of electron       7.9999994 magnetization 
 augmentation part        0.6781483 magnetization 

 Broyden mixing:
  rms(total) = 0.53612E-02    rms(broyden)= 0.53612E-02
  rms(prec ) = 0.59466E-02
  weight for this iteration     100.00

 eigenvalues of (default mixing * dielectric matrix)
  average eigenvalue GAMMA=   1.4718
  2.1617  1.1269  1.1269

 Free energy of the ion-electron system (eV)
  ---------------------------------------------------
  alpha Z        PSCENC =         0.02803141
  Ewald energy   TEWEN  =       116.41630449
  -Hartree energ DENC   =      -511.82887923
  -exchange      EXHF   =         0.00000000
  -V(xc)+E(xc)   XCENC  =        33.82698159
  PAW double counting   =       528.20147731     -530.25713270
  entropy T*S    EENTRO =        -0.00000000
  eigenvalues    EBANDS =      -107.93034518
  atomic energy  EATOM  =       457.35265518
  Solvation  Ediel_sol  =         0.00000000
  ---------------------------------------------------
  free energy    TOTEN  =       -14.19090714 eV

  energy without entropy =      -14.19090714  energy(sigma->0) =      -14.19090714


--------------------------------------------------------------------------------------------------------




--------------------------------------- Iteration      1(   5)  ---------------------------------------


    POTLOK:  cpu time      7.7256: real time      7.7300
    SETDIJ:  cpu time      0.0018: real time      0.0018
     EDDAV:  cpu time      4.9874: real time      4.9885
       DOS:  cpu time      0.0001: real time      0.0001
    CHARGE:  cpu time      0.9033: real time      0.9040
    MIXING:  cpu time      0.3905: real time      0.3905
    --------------------------------------------
      LOOP:  cpu time     14.0087: real time     14.0149

 eigenvalue-minimisations  :    32
 total energy-change (2. order) :-0.3410335E-04  (-0.7545901E-04)
 number of electron       7.9999994 magnetization 
 augmentation part        0.6793960 magnetization 

 Broyden mixing:
  rms(total) = 0.33958E-02    rms(broyden)= 0.33957E-02
  rms(prec ) = 0.36607E-02
  weight for this iteration     100.00

 eigenvalues of (default mixing * dielectric matrix)
  average eigenvalue GAMMA=   1.5644
  2.3999  1.9335  1.1386  0.7854

 Free energy of the ion-electron system (eV)
  ---------------------------------------------------
  alpha Z        PSCENC =         0.02803141
  Ewald energy   TEWEN  =       116.41630449
  -Hartree energ DENC   =      -511.60514388
  -exchange      EXHF   =         0.00000000
  -V(xc)+E(xc)   XCENC  =        33.81603999
  PAW double counting   =       527.76046645     -529.81372746
  entropy T*S    EENTRO =        -0.00000000
  eigenvalues    EBANDS =      -108.14556743
  atomic energy  EATOM  =       457.35265518
  Solvation  Ediel_sol  =         0.00000000
  ---------------------------------------------------
  free energy    TOTEN  =       -14.19094124 eV

  energy without entropy =      -14.19094124  energy(sigma->0) =      -14.19094124


--------------------------------------------------------------------------------------------------------




--------------------------------------- Iteration      1(   6)  ---------------------------------------


    POTLOK:  cpu time      7.6853: real time      7.6890
    SETDIJ:  cpu time      0.0018: real time      0.0018
     EDDAV:  cpu time      4.9859: real time      4.9894
       DOS:  cpu time      0.0001: real time      0.0001
    CHARGE:  cpu time      0.9023: real time      0.9034
    MIXING:  cpu time      0.4064: real time      0.4070
    --------------------------------------------
      LOOP:  cpu time     13.9817: real time     13.9907

 eigenvalue-minimisations  :    32
 total energy-change (2. order) :-0.9522158E-04  (-0.3626080E-05)
 number of electron       7.9999994 magnetization 
 augmentation part        0.6792797 magnetization 

 Broyden mixing:
  rms(total) = 0.10403E-02    rms(broyden)= 0.10403E-02
  rms(prec ) = 0.12660E-02
  weight for this iteration     100.00

 eigenvalues of (default mixing * dielectric matrix)
  average eigenvalue GAMMA=   1.5090
  2.5273  1.9412  1.0696  1.0696  0.9370

 Free energy of the ion-electron system (eV)
  ---------------------------------------------------
  alpha Z        PSCENC =         0.02803141
  Ewald energy   TEWEN  =       116.41630449
  -Hartree energ DENC   =      -511.56945661
  -exchange      EXHF   =         0.00000000
  -V(xc)+E(xc)   XCENC  =        33.81540340
  PAW double counting   =       527.90131759     -529.95518797
  entropy T*S    EENTRO =        -0.00000000
  eigenvalues    EBANDS =      -108.18010395
  atomic energy  EATOM  =       457.35265518
  Solvation  Ediel_sol  =         0.00000000
  ---------------------------------------------------
  free energy    TOTEN  =       -14.19103646 eV

  energy without entropy =      -14.19103646  energy(sigma->0) =      -14.19103646


--------------------------------------------------------------------------------------------------------




--------------------------------------- Iteration      1(   7)  ---------------------------------------


    POTLOK:  cpu time      7.6555: real time      7.6574
    SETDIJ:  cpu time      0.0018: real time      0.0018
     EDDAV:  cpu time      4.9975: real time      4.9979
       DOS:  cpu time      0.0001: real time      0.0001
    CHARGE:  cpu time      0.9023: real time      0.9034
    MIXING:  cpu time      0.4223: real time      0.4223
    --------------------------------------------
      LOOP:  cpu time     13.9795: real time     13.9829

 eigenvalue-minimisations  :    32
 total energy-change (2. order) :-0.3770120E-04  (-0.1606005E-05)
 number of electron       7.9999994 magnetization 
 augmentation part        0.6791009 magnetization 

 Broyden mixing:
  rms(total) = 0.33767E-03    rms(broyden)= 0.33766E-03
  rms(prec ) = 0.59830E-03
  weight for this iteration     100.00

 eigenvalues of (default mixing * dielectric matrix)
  average eigenvalue GAMMA=   1.7511
  3.1944  2.4050  1.9348  0.9849  0.9849  1.0028

 Free energy of the ion-electron system (eV)
  ---------------------------------------------------
  alpha Z        PSCENC =         0.02803141
  Ewald energy   TEWEN  =       116.41630449
  -Hartree energ DENC   =      -511.56947486
  -exchange      EXHF   =         0.00000000
  -V(xc)+E(xc)   XCENC  =        33.81593524
  PAW double counting   =       527.99346687     -530.04793545
  entropy T*S    EENTRO =        -0.00000000
  eigenvalues    EBANDS =      -108.18005704
  atomic energy  EATOM  =       457.35265518
  Solvation  Ediel_sol  =         0.00000000
  ---------------------------------------------------
  free energy    TOTEN  =       -14.19107417 eV

  energy without entropy =      -14.19107417  energy(sigma->0) =      -14.19107417


--------------------------------------------------------------------------------------------------------




--------------------------------------- Iteration      1(   8)  ---------------------------------------


    POTLOK:  cpu time      7.5895: real time      7.5920
    SETDIJ:  cpu time      0.0018: real time      0.0018
     EDDAV:  cpu time      3.9601: real time      3.9609
       DOS:  cpu time      0.0001: real time      0.0001
    CHARGE:  cpu time      0.9040: real time      0.9040
    MIXING:  cpu time      0.4450: real time      0.4450
    --------------------------------------------
      LOOP:  cpu time     12.9004: real time     12.9038

 eigenvalue-minimisations  :    24
 total energy-change (2. order) :-0.6102065E-04  (-0.1613497E-05)
 number of electron       7.9999994 magnetization 
 augmentation part        0.6791318 magnetization 

 Broyden mixing:
  rms(total) = 0.17591E-03    rms(broyden)= 0.17591E-03
  rms(prec ) = 0.27704E-03
  weight for this iteration     100.00

 eigenvalues of (default mixing * dielectric matrix)
  average eigenvalue GAMMA=   1.7305
  3.6706  2.4937  1.8304  1.2721  0.9948  0.9948  0.8573

 Free energy of the ion-electron system (eV)
  ---------------------------------------------------
  alpha Z        PSCENC =         0.02803141
  Ewald energy   TEWEN  =       116.41630449
  -Hartree energ DENC   =      -511.52012194
  -exchange      EXHF   =         0.00000000
  -V(xc)+E(xc)   XCENC  =        33.81445061
  PAW double counting   =       528.09343539     -530.14800289
  entropy T*S    EENTRO =        -0.00000000
  eigenvalues    EBANDS =      -108.22788743
  atomic energy  EATOM  =       457.35265518
  Solvation  Ediel_sol  =         0.00000000
  ---------------------------------------------------
  free energy    TOTEN  =       -14.19113519 eV

  energy without entropy =      -14.19113519  energy(sigma->0) =      -14.19113519


--------------------------------------------------------------------------------------------------------




--------------------------------------- Iteration      1(   9)  ---------------------------------------


    POTLOK:  cpu time      7.5673: real time      7.5716
    SETDIJ:  cpu time      0.0018: real time      0.0018
     EDDAV:  cpu time      4.9826: real time      4.9849
       DOS:  cpu time      0.0001: real time      0.0001
    CHARGE:  cpu time      0.9024: real time      0.9025
    MIXING:  cpu time      0.4696: real time      0.4697
    --------------------------------------------
      LOOP:  cpu time     13.9237: real time     13.9307

 eigenvalue-minimisations  :    32
 total energy-change (2. order) :-0.1158479E-04  (-0.8721284E-07)
 number of electron       7.9999994 magnetization 
 augmentation part        0.6791203 magnetization 

 Broyden mixing:
  rms(total) = 0.14826E-03    rms(broyden)= 0.14825E-03
  rms(prec ) = 0.22014E-03
  weight for this iteration     100.00

 eigenvalues of (default mixing * dielectric matrix)
  average eigenvalue GAMMA=   2.0089
  4.9808  2.7865  2.4178  1.8855  1.1526  0.9774  0.9774  0.8936

 Free energy of the ion-electron system (eV)
  ---------------------------------------------------
  alpha Z        PSCENC =         0.02803141
  Ewald energy   TEWEN  =       116.41630449
  -Hartree energ DENC   =      -511.51551206
  -exchange      EXHF   =         0.00000000
  -V(xc)+E(xc)   XCENC  =        33.81443966
  PAW double counting   =       528.09760769     -530.15217793
  entropy T*S    EENTRO =        -0.00000000
  eigenvalues    EBANDS =      -108.23249521
  atomic energy  EATOM  =       457.35265518
  Solvation  Ediel_sol  =         0.00000000
  ---------------------------------------------------
  free energy    TOTEN  =       -14.19114677 eV

  energy without entropy =      -14.19114677  energy(sigma->0) =      -14.19114677


--------------------------------------------------------------------------------------------------------




--------------------------------------- Iteration      1(  10)  ---------------------------------------


    POTLOK:  cpu time      7.5037: real time      7.5079
    SETDIJ:  cpu time      0.0018: real time      0.0018
     EDDAV:  cpu time      3.9624: real time      3.9647
       DOS:  cpu time      0.0001: real time      0.0001
    CHARGE:  cpu time      0.9024: real time      0.9024
    MIXING:  cpu time      0.4889: real time      0.4891
    --------------------------------------------
      LOOP:  cpu time     12.8592: real time     12.8659

 eigenvalue-minimisations  :    24
 total energy-change (2. order) :-0.1764808E-04  (-0.2884869E-06)
 number of electron       7.9999994 magnetization 
 augmentation part        0.6791527 magnetization 

 Broyden mixing:
  rms(total) = 0.10396E-03    rms(broyden)= 0.10396E-03
  rms(prec ) = 0.12973E-03
  weight for this iteration     100.00

 eigenvalues of (default mixing * dielectric matrix)
  average eigenvalue GAMMA=   1.9880
  5.4384  3.0446  2.4587  1.8760  1.1091  1.1091  0.9579  0.9579  0.9405

 Free energy of the ion-electron system (eV)
  ---------------------------------------------------
  alpha Z        PSCENC =         0.02803141
  Ewald energy   TEWEN  =       116.41630449
  -Hartree energ DENC   =      -511.50100506
  -exchange      EXHF   =         0.00000000
  -V(xc)+E(xc)   XCENC  =        33.81404055
  PAW double counting   =       528.06500493     -530.11948413
  entropy T*S    EENTRO =        -0.00000000
  eigenvalues    EBANDS =      -108.24671178
  atomic energy  EATOM  =       457.35265518
  Solvation  Ediel_sol  =         0.00000000
  ---------------------------------------------------
  free energy    TOTEN  =       -14.19116442 eV

  energy without entropy =      -14.19116442  energy(sigma->0) =      -14.19116442


--------------------------------------------------------------------------------------------------------




--------------------------------------- Iteration      1(  11)  ---------------------------------------


    POTLOK:  cpu time      7.4852: real time      7.4883
    SETDIJ:  cpu time      0.0018: real time      0.0018
     EDDAV:  cpu time      3.9579: real time      3.9602
       DOS:  cpu time      0.0001: real time      0.0001
    CHARGE:  cpu time      0.9032: real time      0.9032
    MIXING:  cpu time      0.5105: real time      0.5112
    --------------------------------------------
      LOOP:  cpu time     12.8586: real time     12.8648

 eigenvalue-minimisations  :    24
 total energy-change (2. order) :-0.6061988E-05  (-0.3493667E-07)
 number of electron       7.9999994 magnetization 
 augmentation part        0.6791338 magnetization 

 Broyden mixing:
  rms(total) = 0.48688E-04    rms(broyden)= 0.48687E-04
  rms(prec ) = 0.67984E-04
  weight for this iteration     100.00

 eigenvalues of (default mixing * dielectric matrix)
  average eigenvalue GAMMA=   2.2450
  6.7398  3.8368  2.6853  2.3779  1.8893  1.1135  1.0003  1.0003  0.9032  0.9032

 Free energy of the ion-electron system (eV)
  ---------------------------------------------------
  alpha Z        PSCENC =         0.02803141
  Ewald energy   TEWEN  =       116.41630449
  -Hartree energ DENC   =      -511.50326273
  -exchange      EXHF   =         0.00000000
  -V(xc)+E(xc)   XCENC  =        33.81421527
  PAW double counting   =       528.06957759     -530.12410059
  entropy T*S    EENTRO =        -0.00000000
  eigenvalues    EBANDS =      -108.24459110
  atomic energy  EATOM  =       457.35265518
  Solvation  Ediel_sol  =         0.00000000
  ---------------------------------------------------
  free energy    TOTEN  =       -14.19117048 eV

  energy without entropy =      -14.19117048  energy(sigma->0) =      -14.19117048


--------------------------------------------------------------------------------------------------------




--------------------------------------- Iteration      1(  12)  ---------------------------------------


    POTLOK:  cpu time      7.5125: real time      7.5175
    SETDIJ:  cpu time      0.0018: real time      0.0018
     EDDAV:  cpu time      2.9681: real time      2.9702
       DOS:  cpu time      0.0001: real time      0.0001
    CHARGE:  cpu time      0.9013: real time      0.9021
    MIXING:  cpu time      0.5346: real time      0.5346
    --------------------------------------------
      LOOP:  cpu time     11.9183: real time     11.9263

 eigenvalue-minimisations  :    16
 total energy-change (2. order) :-0.7528153E-05  (-0.4103162E-07)
 number of electron       7.9999994 magnetization 
 augmentation part        0.6791341 magnetization 

 Broyden mixing:
  rms(total) = 0.21950E-04    rms(broyden)= 0.21950E-04
  rms(prec ) = 0.30393E-04
  weight for this iteration     100.00

 eigenvalues of (default mixing * dielectric matrix)
  average eigenvalue GAMMA=   2.2810
  7.2136  4.1600  2.7511  2.3838  1.8287  1.8287  1.0922  0.9830  0.9830  0.9512
  0.9161

 Free energy of the ion-electron system (eV)
  ---------------------------------------------------
  alpha Z        PSCENC =         0.02803141
  Ewald energy   TEWEN  =       116.41630449
  -Hartree energ DENC   =      -511.50254232
  -exchange      EXHF   =         0.00000000
  -V(xc)+E(xc)   XCENC  =        33.81424098
  PAW double counting   =       528.07850208     -530.13303326
  entropy T*S    EENTRO =        -0.00000000
  eigenvalues    EBANDS =      -108.24533657
  atomic energy  EATOM  =       457.35265518
  Solvation  Ediel_sol  =         0.00000000
  ---------------------------------------------------
  free energy    TOTEN  =       -14.19117801 eV

  energy without entropy =      -14.19117801  energy(sigma->0) =      -14.19117801


--------------------------------------------------------------------------------------------------------




--------------------------------------- Iteration      1(  13)  ---------------------------------------


    POTLOK:  cpu time      7.5583: real time      7.5641
    SETDIJ:  cpu time      0.0018: real time      0.0018
     EDDAV:  cpu time      3.9600: real time      3.9610
       DOS:  cpu time      0.0001: real time      0.0001
    CHARGE:  cpu time      0.9012: real time      0.9019
    MIXING:  cpu time      0.5662: real time      0.5662
    --------------------------------------------
      LOOP:  cpu time     12.9876: real time     12.9951

 eigenvalue-minimisations  :    24
 total energy-change (2. order) :-0.3214047E-05  (-0.8091227E-08)
 number of electron       7.9999994 magnetization 
 augmentation part        0.6791411 magnetization 

 Broyden mixing:
  rms(total) = 0.21999E-04    rms(broyden)= 0.21998E-04
  rms(prec ) = 0.26132E-04
  weight for this iteration     100.00

 eigenvalues of (default mixing * dielectric matrix)
  average eigenvalue GAMMA=   2.3586
  7.9653  4.5367  3.0889  2.4889  2.3695  1.8950  1.1155  1.1155  0.9638  0.9638
  0.8999  0.8999

 Free energy of the ion-electron system (eV)
  ---------------------------------------------------
  alpha Z        PSCENC =         0.02803141
  Ewald energy   TEWEN  =       116.41630449
  -Hartree energ DENC   =      -511.50154194
  -exchange      EXHF   =         0.00000000
  -V(xc)+E(xc)   XCENC  =        33.81419796
  PAW double counting   =       528.07625795     -530.13077840
  entropy T*S    EENTRO =        -0.00000000
  eigenvalues    EBANDS =      -108.24630786
  atomic energy  EATOM  =       457.35265518
  Solvation  Ediel_sol  =         0.00000000
  ---------------------------------------------------
  free energy    TOTEN  =       -14.19118122 eV

  energy without entropy =      -14.19118122  energy(sigma->0) =      -14.19118122


--------------------------------------------------------------------------------------------------------




--------------------------------------- Iteration      1(  14)  ---------------------------------------


    POTLOK:  cpu time      7.6665: real time      7.6724
    SETDIJ:  cpu time      0.0018: real time      0.0018
     EDDAV:  cpu time      2.9514: real time      2.9535
       DOS:  cpu time      0.0001: real time      0.0001
    CHARGE:  cpu time      0.9013: real time      0.9013
    MIXING:  cpu time      0.5974: real time      0.5981
    --------------------------------------------
      LOOP:  cpu time     12.1184: real time     12.1272

 eigenvalue-minimisations  :    16
 total energy-change (2. order) :-0.1768228E-05  (-0.4177178E-08)
 number of electron       7.9999994 magnetization 
 augmentation part        0.6791349 magnetization 

 Broyden mixing:
  rms(total) = 0.14100E-04    rms(broyden)= 0.14100E-04
  rms(prec ) = 0.16234E-04
  weight for this iteration     100.00

 eigenvalues of (default mixing * dielectric matrix)
  average eigenvalue GAMMA=   2.3509
  8.0748  5.0103  3.2228  2.6711  2.3128  1.8844  1.4818  1.0906  1.0906  0.9455
  0.9455  0.9240  0.9075

 Free energy of the ion-electron system (eV)
  ---------------------------------------------------
  alpha Z        PSCENC =         0.02803141
  Ewald energy   TEWEN  =       116.41630449
  -Hartree energ DENC   =      -511.50222329
  -exchange      EXHF   =         0.00000000
  -V(xc)+E(xc)   XCENC  =        33.81424383
  PAW double counting   =       528.07710161     -530.13163628
  entropy T*S    EENTRO =        -0.00000000
  eigenvalues    EBANDS =      -108.24565993
  atomic energy  EATOM  =       457.35265518
  Solvation  Ediel_sol  =         0.00000000
  ---------------------------------------------------
  free energy    TOTEN  =       -14.19118299 eV

  energy without entropy =      -14.19118299  energy(sigma->0) =      -14.19118299


--------------------------------------------------------------------------------------------------------




--------------------------------------- Iteration      1(  15)  ---------------------------------------


    POTLOK:  cpu time      7.7575: real time      7.7638
    SETDIJ:  cpu time      0.0018: real time      0.0018
     EDDAV:  cpu time      3.9615: real time      3.9642
       DOS:  cpu time      0.0001: real time      0.0001
    --------------------------------------------
      LOOP:  cpu time     11.7209: real time     11.7299

 eigenvalue-minimisations  :    24
 total energy-change (2. order) :-0.7502925E-06  (-0.1042364E-08)
 number of electron       7.9999994 magnetization 
 augmentation part        0.6791349 magnetization 

 Free energy of the ion-electron system (eV)
  ---------------------------------------------------
  alpha Z        PSCENC =         0.02803141
  Ewald energy   TEWEN  =       116.41630449
  -Hartree energ DENC   =      -511.50176700
  -exchange      EXHF   =         0.00000000
  -V(xc)+E(xc)   XCENC  =        33.81422146
  PAW double counting   =       528.07638838     -530.13091150
  entropy T*S    EENTRO =        -0.00000000
  eigenvalues    EBANDS =      -108.24610616
  atomic energy  EATOM  =       457.35265518
  Solvation  Ediel_sol  =         0.00000000
  ---------------------------------------------------
  free energy    TOTEN  =       -14.19118374 eV

  energy without entropy =      -14.19118374  energy(sigma->0) =      -14.19118374


--------------------------------------------------------------------------------------------------------




 average (electrostatic) potential at core
  the test charge radii are     0.5201  0.7215
  (the norm of the test charge is              1.0000)
       1 -44.3683       2 -44.3615       3 -80.5322
 
 
 
 E-fermi :  -6.1752     XC(G=0):  -0.0941     alpha+bet : -0.0163

 Fermi energy:        -6.1752356563

 k-point     1 :       0.0000    0.0000    0.0000
  band No.  band energies     occupation 
      1     -24.9513      2.00000
      2     -12.9111      2.00000
      3      -9.1349      2.00000
      4      -7.1257      2.00000
      5      -1.0743      0.00000
      6       0.0183      0.00000
      7       0.2000      0.00000
      8       0.3102      0.00000


--------------------------------------------------------------------------------------------------------


 soft charge-density along one line, spin component           1
         0         1         2         3         4         5         6         7         8         9
 total charge-density along one line
 
 pseudopotential strength for first ion, spin component:           1
 -2.381  -4.111  -0.000   0.003   0.000
 -4.111  -7.012  -0.000   0.008   0.000
 -0.000  -0.000  -0.326  -0.000  -0.000
  0.003   0.008  -0.000  -0.318  -0.000
  0.000   0.000  -0.000  -0.000  -0.326
 total augmentation occupancy for first ion, spin component:           1
  3.595  -0.758   0.000  -0.649   0.005
 -0.758   0.204   0.000   0.136  -0.006
  0.000   0.000   0.035   0.000   0.000
 -0.649   0.136   0.000   0.118  -0.003
  0.005  -0.006   0.000  -0.003   0.023


------------------------ aborting loop because EDIFF is reached ----------------------------------------


    CHARGE:  cpu time      0.9014: real time      0.9016
    FORLOC:  cpu time      0.6834: real time      0.6841
    FORNL :  cpu time      0.3020: real time      0.3020
    STRESS:  cpu time      3.3331: real time      3.3340
    FORCOR:  cpu time      8.7917: real time      8.7922
    FORHAR:  cpu time      2.3879: real time      2.3878
    MIXING:  cpu time      0.6232: real time      0.6232
    OFIELD:  cpu time      0.0000: real time      0.0000

  FORCE on cell =-STRESS in cart. coord.  units (eV):
  Direction    XX          YY          ZZ          XY          YZ          ZX
  --------------------------------------------------------------------------------------
  Alpha Z     0.02803     0.02803     0.02803
  Ewald      59.69800   -21.81814    78.53640     0.00341     0.00032    26.95786
  Hartree   174.39614   159.30093   177.80495     0.00023    -0.00014     4.88984
  E(xc)     -35.84568   -36.20354   -35.77163    -0.00000     0.00000     0.10647
  Local    -318.55484  -246.16901  -335.76797    -0.00107    -0.00100   -24.65206
  n-local   -30.02267   -30.47202   -29.77470     0.00055    -0.00044     0.36791
  augment     6.37367     8.09156     6.05130    -0.00001     0.00003    -0.46396
  Kinetic   142.77906   167.23697   137.39979    -0.00159     0.00024    -7.74667
  Fock        0.00000     0.00000     0.00000     0.00000     0.00000     0.00000
  -------------------------------------------------------------------------------------
  Total      -1.14829    -0.00522    -1.49383     0.00000     0.00000    -0.54059
  in kB      -0.22997    -0.00105    -0.29917     0.00000     0.00000    -0.10827
  external pressure =       -0.18 kB  Pullay stress =        0.00 kB


 VOLUME and BASIS-vectors are now :
 -----------------------------------------------------------------------------
  energy-cutoff  :      900.00
  volume of cell :     8000.00
      direct lattice vectors                 reciprocal lattice vectors
    20.000000000  0.000000000  0.000000000     0.050000000  0.000000000  0.000000000
     0.000000000 20.000000000  0.000000000     0.000000000  0.050000000  0.000000000
     0.000000000  0.000000000 20.000000000     0.000000000  0.000000000  0.050000000

  length of vectors
    20.000000000 20.000000000 20.000000000     0.050000000  0.050000000  0.050000000


 FORCES acting on ions
    electron-ion (+dipol)            ewald-force                    non-local-force                 convergence-correction
 -----------------------------------------------------------------------------------------------
   -.107E+01 -.814E-02 -.847E+02   0.101E+01 -.758E-03 0.909E+02   -.111E+00 -.136E-19 -.752E+01   -.563E-05 0.430E-09 0.228E-04
   0.796E+02 -.434E-02 0.288E+02   -.854E+02 -.355E-02 -.308E+02   0.705E+01 0.000E+00 0.257E+01   -.226E-04 -.703E-10 -.325E-05
   -.468E+02 -.116E+00 0.334E+02   0.844E+02 0.431E-02 -.601E+02   -.386E+02 0.000E+00 0.275E+02   0.315E-06 0.425E-07 -.233E-04
 -----------------------------------------------------------------------------------------------
   0.317E+02 -.129E+00 -.225E+02   0.000E+00 -.607E-17 -.711E-14   -.317E+02 -.136E-19 0.225E+02   -.279E-04 0.428E-07 -.380E-05
 
 
 POSITION                                       TOTAL-FORCE (eV/Angst)
 -----------------------------------------------------------------------------------
      5.10791      0.00007      1.44532        -0.175046      0.000000     -1.306046
      4.18045      0.00004      0.14168         1.202545      0.000000      0.602864
      5.13390      0.00008      0.44561        -1.027499     -0.000000      0.703182
 -----------------------------------------------------------------------------------
    total drift:                               -0.000334     -0.128759     -0.000573


--------------------------------------------------------------------------------------------------------



  FREE ENERGIE OF THE ION-ELECTRON SYSTEM (eV)
  ---------------------------------------------------
  free  energy   TOTEN  =       -14.19118374 eV

  energy  without entropy=      -14.19118374  energy(sigma->0) =      -14.19118374
 


--------------------------------------------------------------------------------------------------------


    POTLOK:  cpu time      7.7800: real time      7.7800


--------------------------------------------------------------------------------------------------------




--------------------------------------------------------------------------------------------------------


    WAVPRE:  cpu time     21.9534: real time     21.9537
    FEWALD:  cpu time      0.0001: real time      0.0001
    ORTHCH:  cpu time      0.1267: real time      0.1267
     LOOP+:  cpu time    243.6938: real time    243.7727


--------------------------------------- Ionic step        2  -------------------------------------------




--------------------------------------- Iteration      2(   1)  ---------------------------------------


    POTLOK:  cpu time      7.7028: real time      7.7028
    SETDIJ:  cpu time      0.0018: real time      0.0018
     EDDAV:  cpu time      2.9672: real time      2.9672
       DOS:  cpu time      0.0001: real time      0.0001
    CHARGE:  cpu time      0.9104: real time      0.9104
    MIXING:  cpu time      0.3373: real time      0.3373
    --------------------------------------------
      LOOP:  cpu time     11.9196: real time     11.9196

 eigenvalue-minimisations  :    16
 total energy-change (2. order) : 0.1890037E+00  (-0.2971123E+01)
 number of electron       7.9999996 magnetization 
 augmentation part        0.7467012 magnetization 

 Broyden mixing:
  rms(total) = 0.20628E+00    rms(broyden)= 0.20626E+00
  rms(prec ) = 0.21794E+00
  weight for this iteration     100.00

 Free energy of the ion-electron system (eV)
  ---------------------------------------------------
  alpha Z        PSCENC =         0.02803141
  Ewald energy   TEWEN  =       136.00201848
  -Hartree energ DENC   =      -520.51991197
  -exchange      EXHF   =         0.00000000
  -V(xc)+E(xc)   XCENC  =        34.23594972
  PAW double counting   =       528.07654001     -530.13106452
  entropy T*S    EENTRO =        -0.00000000
  eigenvalues    EBANDS =      -119.04639764
  atomic energy  EATOM  =       457.35265518
  Solvation  Ediel_sol  =         0.00000000
  ---------------------------------------------------
  free energy    TOTEN  =       -14.00217933 eV

  energy without entropy =      -14.00217933  energy(sigma->0) =      -14.00217933


--------------------------------------------------------------------------------------------------------




--------------------------------------- Iteration      2(   2)  ---------------------------------------


    POTLOK:  cpu time      7.3185: real time      7.3185
    SETDIJ:  cpu time      0.0018: real time      0.0018
     EDDAV:  cpu time      2.9673: real time      2.9673
       DOS:  cpu time      0.0001: real time      0.0001
    CHARGE:  cpu time      0.9023: real time      0.9023
    MIXING:  cpu time      0.3443: real time      0.3443
    --------------------------------------------
      LOOP:  cpu time     11.5342: real time     11.5342

 eigenvalue-minimisations  :    16
 total energy-change (2. order) : 0.4369813E-01  (-0.6825436E-01)
 number of electron       7.9999996 magnetization 
 augmentation part        0.7366978 magnetization 

 Broyden mixing:
  rms(total) = 0.85386E-01    rms(broyden)= 0.85384E-01
  rms(prec ) = 0.89214E-01
  weight for this iteration     100.00

 eigenvalues of (default mixing * dielectric matrix)
  average eigenvalue GAMMA=   1.2831
  1.2831

 Free energy of the ion-electron system (eV)
  ---------------------------------------------------
  alpha Z        PSCENC =         0.02803141
  Ewald energy   TEWEN  =       136.00201848
  -Hartree energ DENC   =      -525.12443252
  -exchange      EXHF   =         0.00000000
  -V(xc)+E(xc)   XCENC  =        34.49625984
  PAW double counting   =       557.61405312     -559.75507017
  entropy T*S    EENTRO =        -0.00000000
  eigenvalues    EBANDS =      -114.57199654
  atomic energy  EATOM  =       457.35265518
  Solvation  Ediel_sol  =         0.00000000
  ---------------------------------------------------
  free energy    TOTEN  =       -13.95848120 eV

  energy without entropy =      -13.95848120  energy(sigma->0) =      -13.95848120


--------------------------------------------------------------------------------------------------------




--------------------------------------- Iteration      2(   3)  ---------------------------------------


    POTLOK:  cpu time      7.3829: real time      7.3829
    SETDIJ:  cpu time      0.0018: real time      0.0018
     EDDAV:  cpu time      2.9483: real time      2.9483
       DOS:  cpu time      0.0001: real time      0.0001
    CHARGE:  cpu time      0.9026: real time      0.9026
    MIXING:  cpu time      0.3591: real time      0.3591
    --------------------------------------------
      LOOP:  cpu time     11.5948: real time     11.5948

 eigenvalue-minimisations  :    16
 total energy-change (2. order) : 0.1038995E-01  (-0.6275194E-02)
 number of electron       7.9999996 magnetization 
 augmentation part        0.7271598 magnetization 

 Broyden mixing:
  rms(total) = 0.37505E-01    rms(broyden)= 0.37504E-01
  rms(prec ) = 0.39034E-01
  weight for this iteration     100.00

 eigenvalues of (default mixing * dielectric matrix)
  average eigenvalue GAMMA=   1.3488
  1.3488  1.3488

 Free energy of the ion-electron system (eV)
  ---------------------------------------------------
  alpha Z        PSCENC =         0.02803141
  Ewald energy   TEWEN  =       136.00201848
  -Hartree energ DENC   =      -526.83986673
  -exchange      EXHF   =         0.00000000
  -V(xc)+E(xc)   XCENC  =        34.59449109
  PAW double counting   =       578.02725389     -580.22065404
  entropy T*S    EENTRO =        -0.00000000
  eigenvalues    EBANDS =      -112.89202053
  atomic energy  EATOM  =       457.35265518
  Solvation  Ediel_sol  =         0.00000000
  ---------------------------------------------------
  free energy    TOTEN  =       -13.94809124 eV

  energy without entropy =      -13.94809124  energy(sigma->0) =      -13.94809124


--------------------------------------------------------------------------------------------------------




--------------------------------------- Iteration      2(   4)  ---------------------------------------


    POTLOK:  cpu time      7.5043: real time      7.5043
    SETDIJ:  cpu time      0.0018: real time      0.0018
     EDDAV:  cpu time      3.9506: real time      3.9506
       DOS:  cpu time      0.0001: real time      0.0001
    CHARGE:  cpu time      0.9018: real time      0.9019
    MIXING:  cpu time      0.3765: real time      0.3765
    --------------------------------------------
      LOOP:  cpu time     12.7350: real time     12.7351

 eigenvalue-minimisations  :    24
 total energy-change (2. order) : 0.1412931E-02  (-0.1272578E-02)
 number of electron       7.9999996 magnetization 
 augmentation part        0.7319194 magnetization 

 Broyden mixing:
  rms(total) = 0.19736E-01    rms(broyden)= 0.19736E-01
  rms(prec ) = 0.20638E-01
  weight for this iteration     100.00

 eigenvalues of (default mixing * dielectric matrix)
  average eigenvalue GAMMA=   1.4414
  2.3374  0.9934  0.9934

 Free energy of the ion-electron system (eV)
  ---------------------------------------------------
  alpha Z        PSCENC =         0.02803141
  Ewald energy   TEWEN  =       136.00201848
  -Hartree energ DENC   =      -526.26743107
  -exchange      EXHF   =         0.00000000
  -V(xc)+E(xc)   XCENC  =        34.56368162
  PAW double counting   =       585.38398459     -587.57695332
  entropy T*S    EENTRO =        -0.00000000
  eigenvalues    EBANDS =      -113.43266520
  atomic energy  EATOM  =       457.35265518
  Solvation  Ediel_sol  =         0.00000000
  ---------------------------------------------------
  free energy    TOTEN  =       -13.94667831 eV

  energy without entropy =      -13.94667831  energy(sigma->0) =      -13.94667831


--------------------------------------------------------------------------------------------------------




--------------------------------------- Iteration      2(   5)  ---------------------------------------


    POTLOK:  cpu time      7.5518: real time      7.5518
    SETDIJ:  cpu time      0.0018: real time      0.0018
     EDDAV:  cpu time      3.9492: real time      3.9492
       DOS:  cpu time      0.0001: real time      0.0001
    CHARGE:  cpu time      0.9025: real time      0.9025
    MIXING:  cpu time      0.3893: real time      0.3893
    --------------------------------------------
      LOOP:  cpu time     12.7946: real time     12.7946

 eigenvalue-minimisations  :    24
 total energy-change (2. order) : 0.4751910E-03  (-0.3244016E-03)
 number of electron       7.9999996 magnetization 
 augmentation part        0.7300206 magnetization 

 Broyden mixing:
  rms(total) = 0.28813E-02    rms(broyden)= 0.28811E-02
  rms(prec ) = 0.31731E-02
  weight for this iteration     100.00

 eigenvalues of (default mixing * dielectric matrix)
  average eigenvalue GAMMA=   1.4975
  2.3048  1.6342  1.1385  0.9126

 Free energy of the ion-electron system (eV)
  ---------------------------------------------------
  alpha Z        PSCENC =         0.02803141
  Ewald energy   TEWEN  =       136.00201848
  -Hartree energ DENC   =      -526.69450892
  -exchange      EXHF   =         0.00000000
  -V(xc)+E(xc)   XCENC  =        34.58869404
  PAW double counting   =       594.36577596     -596.57872492
  entropy T*S    EENTRO =        -0.00000000
  eigenvalues    EBANDS =      -113.01014436
  atomic energy  EATOM  =       457.35265518
  Solvation  Ediel_sol  =         0.00000000
  ---------------------------------------------------
  free energy    TOTEN  =       -13.94620312 eV

  energy without entropy =      -13.94620312  energy(sigma->0) =      -13.94620312


--------------------------------------------------------------------------------------------------------




--------------------------------------- Iteration      2(   6)  ---------------------------------------


    POTLOK:  cpu time      7.6049: real time      7.6049
    SETDIJ:  cpu time      0.0018: real time      0.0018
     EDDAV:  cpu time      3.9487: real time      3.9488
       DOS:  cpu time      0.0001: real time      0.0001
    CHARGE:  cpu time      0.9020: real time      0.9020
    MIXING:  cpu time      0.4040: real time      0.4040
    --------------------------------------------
      LOOP:  cpu time     12.8614: real time     12.8614

 eigenvalue-minimisations  :    24
 total energy-change (2. order) :-0.1725247E-03  (-0.1757146E-04)
 number of electron       7.9999996 magnetization 
 augmentation part        0.7295715 magnetization 

 Broyden mixing:
  rms(total) = 0.20109E-02    rms(broyden)= 0.20108E-02
  rms(prec ) = 0.22749E-02
  weight for this iteration     100.00

 eigenvalues of (default mixing * dielectric matrix)
  average eigenvalue GAMMA=   1.4694
  2.4775  1.8197  1.1366  0.9566  0.9566

 Free energy of the ion-electron system (eV)
  ---------------------------------------------------
  alpha Z        PSCENC =         0.02803141
  Ewald energy   TEWEN  =       136.00201848
  -Hartree energ DENC   =      -526.72890053
  -exchange      EXHF   =         0.00000000
  -V(xc)+E(xc)   XCENC  =        34.59019678
  PAW double counting   =       595.05718540     -597.27225776
  entropy T*S    EENTRO =        -0.00000000
  eigenvalues    EBANDS =      -112.97530461
  atomic energy  EATOM  =       457.35265518
  Solvation  Ediel_sol  =         0.00000000
  ---------------------------------------------------
  free energy    TOTEN  =       -13.94637565 eV

  energy without entropy =      -13.94637565  energy(sigma->0) =      -13.94637565


--------------------------------------------------------------------------------------------------------




--------------------------------------- Iteration      2(   7)  ---------------------------------------


    POTLOK:  cpu time      7.6300: real time      7.6300
    SETDIJ:  cpu time      0.0018: real time      0.0018
     EDDAV:  cpu time      3.9619: real time      3.9620
       DOS:  cpu time      0.0001: real time      0.0001
    CHARGE:  cpu time      0.9015: real time      0.9020
    MIXING:  cpu time      0.4205: real time      0.4205
    --------------------------------------------
      LOOP:  cpu time     12.9158: real time     12.9163

 eigenvalue-minimisations  :    24
 total energy-change (2. order) :-0.7401280E-04  (-0.4939225E-05)
 number of electron       7.9999996 magnetization 
 augmentation part        0.7298967 magnetization 

 Broyden mixing:
  rms(total) = 0.44612E-03    rms(broyden)= 0.44611E-03
  rms(prec ) = 0.74084E-03
  weight for this iteration     100.00

 eigenvalues of (default mixing * dielectric matrix)
  average eigenvalue GAMMA=   1.5297
  2.5033  2.1755  1.4877  0.9230  0.9230  1.1659

 Free energy of the ion-electron system (eV)
  ---------------------------------------------------
  alpha Z        PSCENC =         0.02803141
  Ewald energy   TEWEN  =       136.00201848
  -Hartree energ DENC   =      -526.69098001
  -exchange      EXHF   =         0.00000000
  -V(xc)+E(xc)   XCENC  =        34.58787096
  PAW double counting   =       595.32576298     -597.54022921
  entropy T*S    EENTRO =        -0.00000000
  eigenvalues    EBANDS =      -113.01157946
  atomic energy  EATOM  =       457.35265518
  Solvation  Ediel_sol  =         0.00000000
  ---------------------------------------------------
  free energy    TOTEN  =       -13.94644966 eV

  energy without entropy =      -13.94644966  energy(sigma->0) =      -13.94644966


--------------------------------------------------------------------------------------------------------




--------------------------------------- Iteration      2(   8)  ---------------------------------------


    POTLOK:  cpu time      7.6729: real time      7.6729
    SETDIJ:  cpu time      0.0018: real time      0.0018
     EDDAV:  cpu time      3.9466: real time      3.9466
       DOS:  cpu time      0.0001: real time      0.0001
    CHARGE:  cpu time      0.9016: real time      0.9016
    MIXING:  cpu time      0.4438: real time      0.4439
    --------------------------------------------
      LOOP:  cpu time     12.9668: real time     12.9668

 eigenvalue-minimisations  :    24
 total energy-change (2. order) :-0.1294608E-03  (-0.1884612E-05)
 number of electron       7.9999996 magnetization 
 augmentation part        0.7300237 magnetization 

 Broyden mixing:
  rms(total) = 0.58493E-03    rms(broyden)= 0.58493E-03
  rms(prec ) = 0.72592E-03
  weight for this iteration     100.00

 eigenvalues of (default mixing * dielectric matrix)
  average eigenvalue GAMMA=   1.6090
  3.0323  2.3960  1.8407  0.9998  0.9998  0.9971  0.9971

 Free energy of the ion-electron system (eV)
  ---------------------------------------------------
  alpha Z        PSCENC =         0.02803141
  Ewald energy   TEWEN  =       136.00201848
  -Hartree energ DENC   =      -526.67680070
  -exchange      EXHF   =         0.00000000
  -V(xc)+E(xc)   XCENC  =        34.58662706
  PAW double counting   =       595.28946741     -597.50348449
  entropy T*S    EENTRO =        -0.00000000
  eigenvalues    EBANDS =      -113.02509347
  atomic energy  EATOM  =       457.35265518
  Solvation  Ediel_sol  =         0.00000000
  ---------------------------------------------------
  free energy    TOTEN  =       -13.94657912 eV

  energy without entropy =      -13.94657912  energy(sigma->0) =      -13.94657912


--------------------------------------------------------------------------------------------------------




--------------------------------------- Iteration      2(   9)  ---------------------------------------


    POTLOK:  cpu time      7.7124: real time      7.7124
    SETDIJ:  cpu time      0.0018: real time      0.0018
     EDDAV:  cpu time      3.9453: real time      3.9453
       DOS:  cpu time      0.0001: real time      0.0001
    CHARGE:  cpu time      0.9011: real time      0.9011
    MIXING:  cpu time      0.4681: real time      0.4681
    --------------------------------------------
      LOOP:  cpu time     13.0287: real time     13.0287

 eigenvalue-minimisations  :    24
 total energy-change (2. order) :-0.9667217E-04  (-0.1306361E-05)
 number of electron       7.9999996 magnetization 
 augmentation part        0.7299264 magnetization 

 Broyden mixing:
  rms(total) = 0.16869E-03    rms(broyden)= 0.16868E-03
  rms(prec ) = 0.28792E-03
  weight for this iteration     100.00

 eigenvalues of (default mixing * dielectric matrix)
  average eigenvalue GAMMA=   1.8352
  4.3393  2.5287  2.0566  1.8508  0.9825  0.9825  1.0252  0.9157

 Free energy of the ion-electron system (eV)
  ---------------------------------------------------
  alpha Z        PSCENC =         0.02803141
  Ewald energy   TEWEN  =       136.00201848
  -Hartree energ DENC   =      -526.69905054
  -exchange      EXHF   =         0.00000000
  -V(xc)+E(xc)   XCENC  =        34.58751127
  PAW double counting   =       595.31348014     -597.52771449
  entropy T*S    EENTRO =        -0.00000000
  eigenvalues    EBANDS =      -113.00360725
  atomic energy  EATOM  =       457.35265518
  Solvation  Ediel_sol  =         0.00000000
  ---------------------------------------------------
  free energy    TOTEN  =       -13.94667579 eV

  energy without entropy =      -13.94667579  energy(sigma->0) =      -13.94667579


--------------------------------------------------------------------------------------------------------




--------------------------------------- Iteration      2(  10)  ---------------------------------------


    POTLOK:  cpu time      7.7679: real time      7.7679
    SETDIJ:  cpu time      0.0018: real time      0.0018
     EDDAV:  cpu time      3.9473: real time      3.9473
       DOS:  cpu time      0.0001: real time      0.0001
    CHARGE:  cpu time      0.9011: real time      0.9011
    MIXING:  cpu time      0.4871: real time      0.4871
    --------------------------------------------
      LOOP:  cpu time     13.1052: real time     13.1053

 eigenvalue-minimisations  :    24
 total energy-change (2. order) :-0.8231387E-04  (-0.8683938E-06)
 number of electron       7.9999996 magnetization 
 augmentation part        0.7299230 magnetization 

 Broyden mixing:
  rms(total) = 0.12902E-03    rms(broyden)= 0.12902E-03
  rms(prec ) = 0.17022E-03
  weight for this iteration     100.00

 eigenvalues of (default mixing * dielectric matrix)
  average eigenvalue GAMMA=   1.9876
  5.8276  2.7285  2.3733  1.8811  0.9918  0.9918  1.1308  1.0163  0.9468

 Free energy of the ion-electron system (eV)
  ---------------------------------------------------
  alpha Z        PSCENC =         0.02803141
  Ewald energy   TEWEN  =       136.00201848
  -Hartree energ DENC   =      -526.70733786
  -exchange      EXHF   =         0.00000000
  -V(xc)+E(xc)   XCENC  =        34.58767389
  PAW double counting   =       595.28168469     -597.49590448
  entropy T*S    EENTRO =        -0.00000000
  eigenvalues    EBANDS =      -112.99557942
  atomic energy  EATOM  =       457.35265518
  Solvation  Ediel_sol  =         0.00000000
  ---------------------------------------------------
  free energy    TOTEN  =       -13.94675811 eV

  energy without entropy =      -13.94675811  energy(sigma->0) =      -13.94675811


--------------------------------------------------------------------------------------------------------




--------------------------------------- Iteration      2(  11)  ---------------------------------------


    POTLOK:  cpu time      7.7871: real time      7.7871
    SETDIJ:  cpu time      0.0018: real time      0.0018
     EDDAV:  cpu time      4.9663: real time      4.9663
       DOS:  cpu time      0.0001: real time      0.0001
    CHARGE:  cpu time      0.9020: real time      0.9020
    MIXING:  cpu time      0.5109: real time      0.5109
    --------------------------------------------
      LOOP:  cpu time     14.1681: real time     14.1682

[...]
  -Hartree energ DENC   =      -515.74922673
  -exchange      EXHF   =         0.00000000
  -V(xc)+E(xc)   XCENC  =        34.02804625
  PAW double counting   =       544.89014291     -546.97277860
  entropy T*S    EENTRO =        -0.00000000
  eigenvalues    EBANDS =      -109.67975999
  atomic energy  EATOM  =       457.35265518
  Solvation  Ediel_sol  =         0.00000000
  ---------------------------------------------------
  free energy    TOTEN  =       -14.23327734 eV

  energy without entropy =      -14.23327734  energy(sigma->0) =      -14.23327734


--------------------------------------------------------------------------------------------------------




--------------------------------------- Iteration     15(   2)  ---------------------------------------


    POTLOK:  cpu time      7.7657: real time      7.7720
    SETDIJ:  cpu time      0.0018: real time      0.0018
     EDDAV:  cpu time      3.9795: real time      3.9798
       DOS:  cpu time      0.0001: real time      0.0001
    --------------------------------------------
      LOOP:  cpu time     11.7471: real time     11.7537

 eigenvalue-minimisations  :    24
 total energy-change (2. order) :-0.4433559E-08  (-0.6089156E-09)
 number of electron       7.9999994 magnetization 
 augmentation part        0.6905374 magnetization 

 Free energy of the ion-electron system (eV)
  ---------------------------------------------------
  alpha Z        PSCENC =         0.02803141
  Ewald energy   TEWEN  =       121.86961223
  -Hartree energ DENC   =      -515.74971817
  -exchange      EXHF   =         0.00000000
  -V(xc)+E(xc)   XCENC  =        34.02807415
  PAW double counting   =       544.89017557     -546.97281613
  entropy T*S    EENTRO =        -0.00000000
  eigenvalues    EBANDS =      -109.67929159
  atomic energy  EATOM  =       457.35265518
  Solvation  Ediel_sol  =         0.00000000
  ---------------------------------------------------
  free energy    TOTEN  =       -14.23327734 eV

  energy without entropy =      -14.23327734  energy(sigma->0) =      -14.23327734


--------------------------------------------------------------------------------------------------------




 average (electrostatic) potential at core
  the test charge radii are     0.5201  0.7215
  (the norm of the test charge is              1.0000)
       1 -44.7110       2 -44.7110       3 -80.5684
 
 
 
 E-fermi :  -6.2610     XC(G=0):  -0.0780     alpha+bet : -0.0163

 Fermi energy:        -6.2610173503

 k-point     1 :       0.0000    0.0000    0.0000
  band No.  band energies     occupation 
      1     -25.2918      2.00000
      2     -13.0942      2.00000
      3      -9.2584      2.00000
      4      -7.1952      2.00000
      5      -0.9852      0.00000
      6       0.0359      0.00000
      7       0.2408      0.00000
      8       0.3279      0.00000


--------------------------------------------------------------------------------------------------------


 soft charge-density along one line, spin component           1
         0         1         2         3         4         5         6         7         8         9
 total charge-density along one line
 
 pseudopotential strength for first ion, spin component:           1
 -2.384  -4.117  -0.000   0.003  -0.000
 -4.117  -7.023  -0.000   0.009  -0.000
 -0.000  -0.000  -0.324  -0.000   0.000
  0.003   0.009  -0.000  -0.314  -0.000
 -0.000  -0.000   0.000  -0.000  -0.323
 total augmentation occupancy for first ion, spin component:           1
  3.743  -0.785   0.000  -0.721   0.018
 -0.785   0.216   0.000   0.147  -0.009
  0.000   0.000   0.041   0.000   0.000
 -0.721   0.147   0.000   0.139  -0.005
  0.018  -0.009   0.000  -0.005   0.027


------------------------ aborting loop because EDIFF is reached ----------------------------------------


    CHARGE:  cpu time      0.9045: real time      0.9045
    FORLOC:  cpu time      0.6840: real time      0.6840
    FORNL :  cpu time      0.3024: real time      0.3032
    STRESS:  cpu time      3.3360: real time      3.3369
    FORCOR:  cpu time      8.8298: real time      8.8354
    FORHAR:  cpu time      2.3991: real time      2.4010
    MIXING:  cpu time      0.3485: real time      0.3485
    OFIELD:  cpu time      0.0000: real time      0.0000

  FORCE on cell =-STRESS in cart. coord.  units (eV):
  Direction    XX          YY          ZZ          XY          YZ          ZX
  --------------------------------------------------------------------------------------
  Alpha Z     0.02803     0.02803     0.02803
  Ewald      62.99390   -21.81647    80.69221     0.00364     0.00029    25.42943
  Hartree   175.95505   160.81301   178.98200     0.00025    -0.00015     4.34053
  E(xc)     -36.06514   -36.42709   -36.00007    -0.00000     0.00000     0.09368
  Local    -322.44999  -248.17610  -338.20444    -0.00125    -0.00092   -22.61466
  n-local   -30.69563   -30.80277   -30.42899     0.00052    -0.00042     0.38385
  augment     6.41535     8.15856     6.09918    -0.00001     0.00002    -0.45603
  Kinetic   143.81116   168.21742   138.82639    -0.00151     0.00018    -7.17647
  Fock        0.00000     0.00000     0.00000     0.00000     0.00000     0.00000
  -------------------------------------------------------------------------------------
  Total      -0.00728    -0.00541    -0.00568     0.00000     0.00000     0.00033
  in kB      -0.00146    -0.00108    -0.00114     0.00000     0.00000     0.00007
  external pressure =       -0.00 kB  Pullay stress =        0.00 kB


 VOLUME and BASIS-vectors are now :
 -----------------------------------------------------------------------------
  energy-cutoff  :      900.00
  volume of cell :     8000.00
      direct lattice vectors                 reciprocal lattice vectors
    20.000000000  0.000000000  0.000000000     0.050000000  0.000000000  0.000000000
     0.000000000 20.000000000  0.000000000     0.000000000  0.050000000  0.000000000
     0.000000000  0.000000000 20.000000000     0.000000000  0.000000000  0.050000000

  length of vectors
    20.000000000 20.000000000 20.000000000     0.050000000  0.050000000  0.050000000


 FORCES acting on ions
    electron-ion (+dipol)            ewald-force                    non-local-force                 convergence-correction
 -----------------------------------------------------------------------------------------------
   0.134E+00 -.855E-02 -.880E+02   -.182E+00 -.822E-03 0.963E+02   0.487E-01 0.271E-19 -.832E+01   0.373E-05 -.445E-09 0.172E-04
   0.832E+02 -.455E-02 0.287E+02   -.911E+02 -.388E-02 -.314E+02   0.788E+01 0.000E+00 0.268E+01   -.167E-04 -.823E-09 -.133E-04
   -.513E+02 -.117E+00 0.365E+02   0.912E+02 0.471E-02 -.649E+02   -.400E+02 0.000E+00 0.284E+02   0.673E-04 0.209E-07 -.722E-04
 -----------------------------------------------------------------------------------------------
   0.321E+02 -.130E+00 -.228E+02   0.000E+00 -.607E-17 0.000E+00   -.321E+02 0.271E-19 0.228E+02   0.544E-04 0.196E-07 -.683E-04
 
 
 POSITION                                       TOTAL-FORCE (eV/Angst)
 -----------------------------------------------------------------------------------
      5.09119      0.00007      1.41862         0.000756     -0.000000     -0.000517
      4.20046      0.00004      0.16634         0.000912     -0.000000     -0.000229
      5.13061      0.00008      0.44765        -0.001668      0.000000      0.000746
 -----------------------------------------------------------------------------------
    total drift:                               -0.000125     -0.130275     -0.000355


--------------------------------------------------------------------------------------------------------



  FREE ENERGIE OF THE ION-ELECTRON SYSTEM (eV)
  ---------------------------------------------------
  free  energy   TOTEN  =       -14.23327734 eV

  energy  without entropy=      -14.23327734  energy(sigma->0) =      -14.23327734
 
 d Force = 0.6391016E-08[ 0.133E-08, 0.114E-07]  d Energy = 0.1573710E-07-0.935E-08
 d Force =-0.1901151E-02[-0.190E-02,-0.190E-02]  d Ewald  =-0.1901151E-02-0.256E-10


--------------------------------------------------------------------------------------------------------


    POTLOK:  cpu time      7.7689: real time      7.7714


--------------------------------------------------------------------------------------------------------




--------------------------------------------------------------------------------------------------------


    WAVPRE:  cpu time      2.6817: real time      2.6820
    FEWALD:  cpu time      0.0001: real time      0.0001
    ORTHCH:  cpu time      0.1269: real time      0.1269
     LOOP+:  cpu time     51.0975: real time     51.1229


--------------------------------------- Ionic step       16  -------------------------------------------




--------------------------------------- Iteration     16(   1)  ---------------------------------------


    POTLOK:  cpu time      7.7622: real time      7.7672
    SETDIJ:  cpu time      0.0018: real time      0.0018
     EDDAV:  cpu time      3.9651: real time      3.9685
       DOS:  cpu time      0.0001: real time      0.0001
    CHARGE:  cpu time      0.9049: real time      0.9056
    MIXING:  cpu time      0.3295: real time      0.3295
    --------------------------------------------
      LOOP:  cpu time     12.9636: real time     12.9727

 eigenvalue-minimisations  :    24
 total energy-change (2. order) :-0.6415121E-07  (-0.9556377E-06)
 number of electron       7.9999994 magnetization 
 augmentation part        0.6905517 magnetization 

 Broyden mixing:
  rms(total) = 0.73504E-04    rms(broyden)= 0.73490E-04
  rms(prec ) = 0.76625E-04
  weight for this iteration     100.00

 Free energy of the ion-electron system (eV)
  ---------------------------------------------------
  alpha Z        PSCENC =         0.02803141
  Ewald energy   TEWEN  =       121.87187263
  -Hartree energ DENC   =      -515.75048210
  -exchange      EXHF   =         0.00000000
  -V(xc)+E(xc)   XCENC  =        34.02809686
  PAW double counting   =       544.88992124     -546.97256351
  entropy T*S    EENTRO =        -0.00000000
  eigenvalues    EBANDS =      -109.68080911
  atomic energy  EATOM  =       457.35265518
  Solvation  Ediel_sol  =         0.00000000
  ---------------------------------------------------
  free energy    TOTEN  =       -14.23327740 eV

  energy without entropy =      -14.23327740  energy(sigma->0) =      -14.23327740


--------------------------------------------------------------------------------------------------------




--------------------------------------- Iteration     16(   2)  ---------------------------------------


    POTLOK:  cpu time      7.7338: real time      7.7402
    SETDIJ:  cpu time      0.0018: real time      0.0018
     EDDAV:  cpu time      3.9810: real time      3.9839
       DOS:  cpu time      0.0001: real time      0.0001
    --------------------------------------------
      LOOP:  cpu time     11.7166: real time     11.7259

 eigenvalue-minimisations  :    24
 total energy-change (2. order) :-0.7641461E-09  (-0.1055262E-07)
 number of electron       7.9999994 magnetization 
 augmentation part        0.6905517 magnetization 

 Free energy of the ion-electron system (eV)
  ---------------------------------------------------
  alpha Z        PSCENC =         0.02803141
  Ewald energy   TEWEN  =       121.87187263
  -Hartree energ DENC   =      -515.75167175
  -exchange      EXHF   =         0.00000000
  -V(xc)+E(xc)   XCENC  =        34.02816738
  PAW double counting   =       544.89411309     -546.97677929
  entropy T*S    EENTRO =        -0.00000000
  eigenvalues    EBANDS =      -109.67966604
  atomic energy  EATOM  =       457.35265518
  Solvation  Ediel_sol  =         0.00000000
  ---------------------------------------------------
  free energy    TOTEN  =       -14.23327740 eV

  energy without entropy =      -14.23327740  energy(sigma->0) =      -14.23327740


--------------------------------------------------------------------------------------------------------




 average (electrostatic) potential at core
  the test charge radii are     0.5201  0.7215
  (the norm of the test charge is              1.0000)
       1 -44.7111       2 -44.7113       3 -80.5684
 
 
 
 E-fermi :  -6.2609     XC(G=0):  -0.0776     alpha+bet : -0.0163

 Fermi energy:        -6.2608707690

 k-point     1 :       0.0000    0.0000    0.0000
  band No.  band energies     occupation 
      1     -25.2919      2.00000
      2     -13.0947      2.00000
      3      -9.2580      2.00000
      4      -7.1952      2.00000
      5      -0.9852      0.00000
      6       0.0364      0.00000
      7       0.2405      0.00000
      8       0.3282      0.00000


--------------------------------------------------------------------------------------------------------


 soft charge-density along one line, spin component           1
         0         1         2         3         4         5         6         7         8         9
 total charge-density along one line
 
 pseudopotential strength for first ion, spin component:           1
 -2.384  -4.117  -0.000   0.003  -0.000
 -4.117  -7.023  -0.000   0.009  -0.000
 -0.000  -0.000  -0.324  -0.000   0.000
  0.003   0.009  -0.000  -0.314  -0.000
 -0.000  -0.000   0.000  -0.000  -0.323
 total augmentation occupancy for first ion, spin component:           1
  3.743  -0.785   0.000  -0.721   0.018
 -0.785   0.216   0.000   0.147  -0.009
  0.000   0.000   0.041   0.000   0.000
 -0.721   0.147   0.000   0.139  -0.005
  0.018  -0.009   0.000  -0.005   0.027


------------------------ aborting loop because EDIFF is reached ----------------------------------------


    CHARGE:  cpu time      0.9056: real time      0.9057
    FORLOC:  cpu time      0.6839: real time      0.6846
    FORNL :  cpu time      0.3011: real time      0.3011
    STRESS:  cpu time      3.3360: real time      3.3388
    FORCOR:  cpu time      8.8228: real time      8.8269
    FORHAR:  cpu time      2.3991: real time      2.4011
    MIXING:  cpu time      0.3477: real time      0.3478
    OFIELD:  cpu time      0.0000: real time      0.0000

  FORCE on cell =-STRESS in cart. coord.  units (eV):
  Direction    XX          YY          ZZ          XY          YZ          ZX
  --------------------------------------------------------------------------------------
  Alpha Z     0.02803     0.02803     0.02803
  Ewald      62.99215   -21.81647    80.69623     0.00364     0.00029    25.44141
  Hartree   175.95484   160.81362   178.98327     0.00025    -0.00015     4.34276
  E(xc)     -36.06526   -36.42719   -36.00015    -0.00000     0.00000     0.09375
  Local    -322.44822  -248.17676  -338.20887    -0.00125    -0.00092   -22.62573
  n-local   -30.69603   -30.80299   -30.42937     0.00052    -0.00042     0.38364
  augment     6.41547     8.15861     6.09921    -0.00001     0.00002    -0.45620
  Kinetic   143.81255   168.21763   138.82583    -0.00151     0.00018    -7.17959
  Fock        0.00000     0.00000     0.00000     0.00000     0.00000     0.00000
  -------------------------------------------------------------------------------------
  Total      -0.00646    -0.00552    -0.00582     0.00000     0.00000     0.00004
  in kB      -0.00129    -0.00111    -0.00117     0.00000     0.00000     0.00001
  external pressure =       -0.00 kB  Pullay stress =        0.00 kB


 VOLUME and BASIS-vectors are now :
 -----------------------------------------------------------------------------
  energy-cutoff  :      900.00
  volume of cell :     8000.00
      direct lattice vectors                 reciprocal lattice vectors
    20.000000000  0.000000000  0.000000000     0.050000000  0.000000000  0.000000000
     0.000000000 20.000000000  0.000000000     0.000000000  0.050000000  0.000000000
     0.000000000  0.000000000 20.000000000     0.000000000  0.000000000  0.050000000

  length of vectors
    20.000000000 20.000000000 20.000000000     0.050000000  0.050000000  0.050000000


 FORCES acting on ions
    electron-ion (+dipol)            ewald-force                    non-local-force                 convergence-correction
 -----------------------------------------------------------------------------------------------
   0.127E+00 -.855E-02 -.880E+02   -.175E+00 -.822E-03 0.963E+02   0.479E-01 -.678E-20 -.832E+01   0.901E-04 0.270E-07 -.392E-04
   0.832E+02 -.455E-02 0.288E+02   -.911E+02 -.388E-02 -.314E+02   0.788E+01 -.136E-19 0.269E+01   0.487E-04 0.524E-07 -.525E-04
   -.513E+02 -.117E+00 0.365E+02   0.912E+02 0.471E-02 -.649E+02   -.400E+02 0.000E+00 0.284E+02   0.154E-02 -.151E-06 -.370E-03
 -----------------------------------------------------------------------------------------------
   0.321E+02 -.130E+00 -.228E+02   0.000E+00 -.607E-17 0.000E+00   -.321E+02 -.203E-19 0.228E+02   0.168E-02 -.716E-07 -.462E-03
 
 
 POSITION                                       TOTAL-FORCE (eV/Angst)
 -----------------------------------------------------------------------------------
      5.09123      0.00007      1.41863         0.000205     -0.000000     -0.000456
      4.20045      0.00004      0.16631        -0.000049     -0.000000      0.000062
      5.13057      0.00008      0.44767        -0.000155      0.000000      0.000394
 -----------------------------------------------------------------------------------
    total drift:                               -0.000219     -0.130275     -0.000316


--------------------------------------------------------------------------------------------------------



  FREE ENERGIE OF THE ION-ELECTRON SYSTEM (eV)
  ---------------------------------------------------
  free  energy   TOTEN  =       -14.23327740 eV

  energy  without entropy=      -14.23327740  energy(sigma->0) =      -14.23327740
 
 d Force = 0.6012127E-07[ 0.128E-07, 0.107E-06]  d Energy = 0.6048180E-07-0.361E-09
 d Force =-0.2260394E-02[-0.226E-02,-0.226E-02]  d Ewald  =-0.2260394E-02-0.151E-10


--------------------------------------------------------------------------------------------------------


    POTLOK:  cpu time      7.7226: real time      7.7274


--------------------------------------------------------------------------------------------------------


 Conjugate gradient step on ions:
 trial-energy change:   -0.000000  1 .order   -0.000000   -0.000000   -0.000000
  (g-gl).g = 0.252E-06      g.g   = 0.244E-06  gl.gl    = 0.272E-06
 g(Force)  = 0.244E-06   g(Stress)= 0.000E+00 ortho     =-0.816E-08
 gamma     =   0.92638
 trial     =   0.45416
 opt step  =   0.51544  (harmonic =   0.51544) maximal distance =0.00004540
 next E    =   -14.233277   (d E  =  -0.00000)


--------------------------------------------------------------------------------------------------------


  
 reached required accuracy - stopping structural energy minimisation
 writing wavefunctions
     LOOP+:  cpu time     49.3078: real time     49.3409
    4ORBIT:  cpu time      0.0000: real time      0.0000

 total amount of memory used by VASP MPI-rank0  2758168. kBytes
=======================================================================

   base      :      30000. kBytes
   nonl-proj :      86331. kBytes
   fftplans  :     924480. kBytes
   grid      :    1654560. kBytes
   one-center:          9. kBytes
   wavefun   :      62788. kBytes
 
  
  
 General timing and accounting informations for this job:
 ========================================================
  
                  Total CPU time used (sec):     1783.296
                            User time (sec):     1677.092
                          System time (sec):      106.203
                         Elapsed time (sec):     1783.905
  
                   Maximum memory used (kb):     4375800.
                   Average memory used (kb):          N/A
  
                          Minor page faults:    105405612
                          Major page faults:            0
                 Voluntary context switches:          555
